Variables= "X","Y"
zone T= "BLOCK1", I=10, J=10

