Variables= "X","Y","PHI"
zone T= "BLOCK1", I=11, J=11, F=Point

0.000000 	 0.000000 	 1.000000 
0.000000 	 0.100000 	 1.000000 
0.000000 	 0.200000 	 1.000000 
0.000000 	 0.300000 	 1.000000 
0.000000 	 0.400000 	 1.000000 
0.000000 	 0.500000 	 1.000000 
0.000000 	 0.600000 	 1.000000 
0.000000 	 0.700000 	 1.000000 
0.000000 	 0.800000 	 1.000000 
0.000000 	 0.900000 	 1.000000 
0.000000 	 1.000000 	 0.000000 
0.100000 	 0.000000 	 1.000000 
0.100000 	 0.100000 	 0.699753 
0.100000 	 0.200000 	 0.730056 
0.100000 	 0.300000 	 0.737654 
0.100000 	 0.400000 	 0.735873 
0.100000 	 0.500000 	 0.729047 
0.100000 	 0.600000 	 0.715743 
0.100000 	 0.700000 	 0.689025 
0.100000 	 0.800000 	 0.628833 
0.100000 	 0.900000 	 0.472607 
0.100000 	 1.000000 	 0.000000 
0.200000 	 0.000000 	 1.000000 
0.200000 	 0.100000 	 0.568955 
0.200000 	 0.200000 	 0.569600 
0.200000 	 0.300000 	 0.566452 
0.200000 	 0.400000 	 0.558061 
0.200000 	 0.500000 	 0.544346 
0.200000 	 0.600000 	 0.521695 
0.200000 	 0.700000 	 0.481611 
0.200000 	 0.800000 	 0.406377 
0.200000 	 0.900000 	 0.261593 
0.200000 	 1.000000 	 0.000000 
0.300000 	 0.000000 	 1.000000 
0.300000 	 0.100000 	 0.506468 
0.300000 	 0.200000 	 0.479577 
0.300000 	 0.300000 	 0.462499 
0.300000 	 0.400000 	 0.446254 
0.300000 	 0.500000 	 0.426727 
0.300000 	 0.600000 	 0.398758 
0.300000 	 0.700000 	 0.354639 
0.300000 	 0.800000 	 0.282628 
0.300000 	 0.900000 	 0.167388 
0.300000 	 1.000000 	 0.000000 
0.400000 	 0.000000 	 1.000000 
0.400000 	 0.100000 	 0.477342 
0.400000 	 0.200000 	 0.434151 
0.400000 	 0.300000 	 0.407299 
0.400000 	 0.400000 	 0.385298 
0.400000 	 0.500000 	 0.361993 
0.400000 	 0.600000 	 0.331498 
0.400000 	 0.700000 	 0.287061 
0.400000 	 0.800000 	 0.220764 
0.400000 	 0.900000 	 0.125330 
0.400000 	 1.000000 	 0.000000 
0.500000 	 0.000000 	 1.000000 
0.500000 	 0.100000 	 0.468747 
0.500000 	 0.200000 	 0.420305 
0.500000 	 0.300000 	 0.390059 
0.500000 	 0.400000 	 0.365999 
0.500000 	 0.500000 	 0.341397 
0.500000 	 0.600000 	 0.310175 
0.500000 	 0.700000 	 0.265947 
0.500000 	 0.800000 	 0.202007 
0.500000 	 0.900000 	 0.113167 
0.500000 	 1.000000 	 0.000000 
0.600000 	 0.000000 	 1.000000 
0.600000 	 0.100000 	 0.477342 
0.600000 	 0.200000 	 0.434151 
0.600000 	 0.300000 	 0.407299 
0.600000 	 0.400000 	 0.385298 
0.600000 	 0.500000 	 0.361993 
0.600000 	 0.600000 	 0.331498 
0.600000 	 0.700000 	 0.287061 
0.600000 	 0.800000 	 0.220764 
0.600000 	 0.900000 	 0.125330 
0.600000 	 1.000000 	 0.000000 
0.700000 	 0.000000 	 1.000000 
0.700000 	 0.100000 	 0.506468 
0.700000 	 0.200000 	 0.479577 
0.700000 	 0.300000 	 0.462499 
0.700000 	 0.400000 	 0.446254 
0.700000 	 0.500000 	 0.426727 
0.700000 	 0.600000 	 0.398758 
0.700000 	 0.700000 	 0.354639 
0.700000 	 0.800000 	 0.282628 
0.700000 	 0.900000 	 0.167388 
0.700000 	 1.000000 	 0.000000 
0.800000 	 0.000000 	 1.000000 
0.800000 	 0.100000 	 0.568955 
0.800000 	 0.200000 	 0.569600 
0.800000 	 0.300000 	 0.566452 
0.800000 	 0.400000 	 0.558061 
0.800000 	 0.500000 	 0.544346 
0.800000 	 0.600000 	 0.521695 
0.800000 	 0.700000 	 0.481611 
0.800000 	 0.800000 	 0.406377 
0.800000 	 0.900000 	 0.261593 
0.800000 	 1.000000 	 0.000000 
0.900000 	 0.000000 	 1.000000 
0.900000 	 0.100000 	 0.699753 
0.900000 	 0.200000 	 0.730056 
0.900000 	 0.300000 	 0.737654 
0.900000 	 0.400000 	 0.735873 
0.900000 	 0.500000 	 0.729047 
0.900000 	 0.600000 	 0.715743 
0.900000 	 0.700000 	 0.689025 
0.900000 	 0.800000 	 0.628833 
0.900000 	 0.900000 	 0.472607 
0.900000 	 1.000000 	 0.000000 
1.000000 	 0.000000 	 1.000000 
1.000000 	 0.100000 	 1.000000 
1.000000 	 0.200000 	 1.000000 
1.000000 	 0.300000 	 1.000000 
1.000000 	 0.400000 	 1.000000 
1.000000 	 0.500000 	 1.000000 
1.000000 	 0.600000 	 1.000000 
1.000000 	 0.700000 	 1.000000 
1.000000 	 0.800000 	 1.000000 
1.000000 	 0.900000 	 1.000000 
1.000000 	 1.000000 	 0.000000 
