Variables= "X","Y"
zone T= "BLOCK1", I=10, J=10

0.000000	 4.8980238851
0.301030	 4.0687628609
0.477121	 3.7371853847
0.602060	 3.5202895298
0.698970	 3.3570935444
0.778151	 3.2254252805
0.845098	 3.1145605503
0.903090	 3.0184189931
0.954243	 2.9331696209
1.000000	 2.8562101216
1.041393	 2.7856748470
1.079181	 2.7201752538
1.113943	 2.6586519739
1.146128	 2.6002840832
1.176091	 2.5444294362
1.204120	 2.4905829658
1.230449	 2.4383461286
1.255273	 2.3874037739
1.278754	 2.3375062781
1.301030	 2.2884555943
1.322219	 2.2400943013
1.342423	 2.1922969918
1.361728	 2.1449634978
1.380211	 2.0980135654
1.397940	 2.0513826699
1.414973	 2.0050187306
1.431364	 1.9588795302
1.447158	 1.9129306887
1.462398	 1.8671440705
1.477121	 1.8214965315
1.491362	 1.7759689313
1.505150	 1.7305453539
1.518514	 1.6852124903
1.531479	 1.6399591494
1.544068	 1.5947758683
1.556303	 1.5496546013
1.568202	 1.5045884708
1.579784	 1.4595715666
1.591065	 1.4145987848
1.602060	 1.3696656955
1.612784	 1.3247684368
1.623249	 1.2799036263
1.633468	 1.2350682899
1.643453	 1.1902598019
1.653213	 1.1454758351
1.662758	 1.1007143205
1.672098	 1.0559734117
1.681241	 1.0112514564
1.690196	 0.9665469710
1.698970	 0.9218586205
1.707570	 0.8771851995
1.716003	 0.8325256176
1.724276	 0.7878788856
1.732394	 0.7432441044
1.740363	 0.6986204547
1.748188	 0.6540071886
1.755875	 0.6094036219
1.763428	 0.5648091273
1.770852	 0.5202231289
1.778151	 0.4756450970
1.785330	 0.4310745432
1.792392	 0.3865110168
1.799341	 0.3419541011
1.806180	 0.2974034103
1.812913	 0.2528585863
1.819544	 0.2083192969
1.826075	 0.1637852328
1.832509	 0.1192561062
1.838849	 0.0747316484
1.845098	 0.0302116088
1.851258	 -0.0143042470
1.857332	 -0.0588161386
1.863323	 -0.1033242713
1.869232	 -0.1478288382
1.875061	 -0.1923300203
1.880814	 -0.2368279879
1.886491	 -0.2813229010
1.892095	 -0.3258149106
1.897627	 -0.3703041587
1.903090	 -0.4147907795
1.908485	 -0.4592748996
1.913814	 -0.5037566386
1.919078	 -0.5482361095
1.924279	 -0.5927134194
1.929419	 -0.6371886696
1.934498	 -0.6816619561
1.939519	 -0.7261333697
1.944483	 -0.7706029969
1.949390	 -0.8150709194
1.954243	 -0.8595372150
1.959041	 -0.9040019575
1.963788	 -0.9484652171
1.968483	 -0.9929270606
1.973128	 -1.0373875513
1.977724	 -1.0818467497
1.982271	 -1.1263047132
1.986772	 -1.1707614965
1.991226	 -1.2152171518
1.995635	 -1.2596717287
2.000000	 -1.3041252747
2.004321	 -1.3485778347
2.008600	 -1.3930294519
2.012837	 -1.4374801673
2.017033	 -1.4819300201
2.021189	 -1.5263790477
2.025306	 -1.5708272857
2.029384	 -1.6152747682
2.033424	 -1.6597215277
2.037426	 -1.7041675954
2.041393	 -1.7486130009
2.045323	 -1.7930577726
2.049218	 -1.8375019376
2.053078	 -1.8819455217
2.056905	 -1.9263885497
2.060698	 -1.9708310454
2.064458	 -2.0152730313
2.068186	 -2.0597145291
2.071882	 -2.1041555595
2.075547	 -2.1485961423
2.079181	 -2.1930362963
2.082785	 -2.2374760398
2.086360	 -2.2819153901
2.089905	 -2.3263543638
2.093422	 -2.3707929766
2.096910	 -2.4152312439
2.100371	 -2.4596691801
2.103804	 -2.5041067992
2.107210	 -2.5485441145
2.110590	 -2.5929811387
2.113943	 -2.6374178841
2.117271	 -2.6818543623
2.120574	 -2.7262905845
2.123852	 -2.7707265615
2.127105	 -2.8151623035
2.130334	 -2.8595978203
2.133539	 -2.9040331213
2.136721	 -2.9484682156
2.139879	 -2.9929031118
2.143015	 -3.0373378181
2.146128	 -3.0817723425
2.149219	 -3.1262066925
2.152288	 -3.1706408755
2.155336	 -3.2150748983
2.158362	 -3.2595087677
2.161368	 -3.3039424900
2.164353	 -3.3483760714
2.167317	 -3.3928095177
2.170262	 -3.4372428345
2.173186	 -3.4816760273
2.176091	 -3.5261091011
2.178977	 -3.5705420610
2.181844	 -3.6149749116
2.184691	 -3.6594076575
2.187521	 -3.7038403031
2.190332	 -3.7482728524
2.193125	 -3.7927053096
2.195900	 -3.8371376783
2.198657	 -3.8815699624
2.201397	 -3.9260021653
2.204120	 -3.9704342903
2.206826	 -4.0148663408
2.209515	 -4.0592983197
2.212188	 -4.1037302301
2.214844	 -4.1481620748
2.217484	 -4.1925938565
2.220108	 -4.2370255778
2.222716	 -4.2814572413
2.225309	 -4.3258888492
2.227887	 -4.3703204041
2.230449	 -4.4147519079
2.232996	 -4.4591833629
2.235528	 -4.5036147710
2.238046	 -4.5480461342
2.240549	 -4.5924774544
2.243038	 -4.6369087333
2.245513	 -4.6813399727
2.247973	 -4.7257711742
2.250420	 -4.7702023393
2.252853	 -4.8146334695
2.255273	 -4.8590645664
2.257679	 -4.9034956313
2.260071	 -4.9479266654
2.262451	 -4.9923576701
2.264818	 -5.0367886466
2.267172	 -5.0812195961
2.269513	 -5.1256505196
2.271842	 -5.1700814183
2.274158	 -5.2145122932
2.276462	 -5.2589431452
2.278754	 -5.3033739753
2.281033	 -5.3478047844
2.283301	 -5.3922355735
2.285557	 -5.4366663432
2.287802	 -5.4810970944
2.290035	 -5.5255278279
2.292256	 -5.5699585444
2.294466	 -5.6143892446
2.296665	 -5.6588199292
2.298853	 -5.7032505988
2.301030	 -5.7476812541
2.303196	 -5.7921118956
2.305351	 -5.8365425239
2.307496	 -5.8809731395
2.309630	 -5.9254037431
2.311754	 -5.9698343350
2.313867	 -6.0142649157
