Variables= "X","Y","PHI"
zone T= "BLOCK1", I=31, J=21, F=Point

0.000000 	 0.000000 	 0.000000 
0.200000 	 0.000000 	 0.000000 
0.400000 	 0.000000 	 0.000000 
0.600000 	 0.000000 	 0.000000 
0.800000 	 0.000000 	 0.000000 
1.000000 	 0.000000 	 0.000000 
1.200000 	 0.000000 	 100.000000 
1.400000 	 0.000000 	 100.000000 
1.600000 	 0.000000 	 100.000000 
1.800000 	 0.000000 	 100.000000 
2.000000 	 0.000000 	 100.000000 
2.200000 	 0.000000 	 100.000000 
2.400000 	 0.000000 	 100.000000 
2.600000 	 0.000000 	 100.000000 
2.800000 	 0.000000 	 100.000000 
3.000000 	 0.000000 	 100.000000 
3.200000 	 0.000000 	 100.000000 
3.400000 	 0.000000 	 100.000000 
3.600000 	 0.000000 	 100.000000 
3.800000 	 0.000000 	 100.000000 
4.000000 	 0.000000 	 100.000000 
4.200000 	 0.000000 	 100.000000 
4.400000 	 0.000000 	 100.000000 
4.600000 	 0.000000 	 100.000000 
4.800000 	 0.000000 	 100.000000 
5.000000 	 0.000000 	 100.000000 
5.200000 	 0.000000 	 100.000000 
5.400000 	 0.000000 	 100.000000 
5.600000 	 0.000000 	 100.000000 
5.800000 	 0.000000 	 100.000000 
6.000000 	 0.000000 	 100.000000 
0.000000 	 0.200000 	 0.000000 
0.200000 	 0.200000 	 2.109943 
0.400000 	 0.200000 	 4.677473 
0.600000 	 0.200000 	 8.467106 
0.800000 	 0.200000 	 15.249704 
1.000000 	 0.200000 	 36.677633 
1.200000 	 0.200000 	 48.888695 
1.400000 	 0.200000 	 63.054517 
1.600000 	 0.200000 	 69.460204 
1.800000 	 0.200000 	 72.840957 
2.000000 	 0.200000 	 74.856984 
2.200000 	 0.200000 	 76.171527 
2.400000 	 0.200000 	 77.084795 
2.600000 	 0.200000 	 77.748458 
2.800000 	 0.200000 	 78.246445 
3.000000 	 0.200000 	 78.628712 
3.200000 	 0.200000 	 78.926727 
3.400000 	 0.200000 	 79.161172 
3.600000 	 0.200000 	 79.346018 
3.800000 	 0.200000 	 79.490762 
4.000000 	 0.200000 	 79.601660 
4.200000 	 0.200000 	 79.682274 
4.400000 	 0.200000 	 79.733448 
4.600000 	 0.200000 	 79.752486 
4.800000 	 0.200000 	 79.730842 
5.000000 	 0.200000 	 79.648271 
5.200000 	 0.200000 	 79.457461 
5.400000 	 0.200000 	 79.040181 
5.600000 	 0.200000 	 78.069813 
5.800000 	 0.200000 	 77.710450 
6.000000 	 0.200000 	 77.710450 
0.000000 	 0.400000 	 0.000000 
0.200000 	 0.400000 	 3.527155 
0.400000 	 0.400000 	 7.565757 
0.600000 	 0.400000 	 12.928149 
0.800000 	 0.400000 	 20.859925 
1.000000 	 0.400000 	 34.912839 
1.200000 	 0.400000 	 46.668893 
1.400000 	 0.400000 	 56.963915 
1.600000 	 0.400000 	 63.847447 
1.800000 	 0.400000 	 68.331753 
2.000000 	 0.400000 	 71.335769 
2.200000 	 0.400000 	 73.427891 
2.400000 	 0.400000 	 74.938891 
2.600000 	 0.400000 	 76.063607 
2.800000 	 0.400000 	 76.920831 
3.000000 	 0.400000 	 77.585880 
3.200000 	 0.400000 	 78.108266 
3.400000 	 0.400000 	 78.521515 
3.600000 	 0.400000 	 78.848775 
3.800000 	 0.400000 	 79.106076 
4.000000 	 0.400000 	 79.304185 
4.200000 	 0.400000 	 79.449517 
4.400000 	 0.400000 	 79.544231 
4.600000 	 0.400000 	 79.585357 
4.800000 	 0.400000 	 79.562380 
5.000000 	 0.400000 	 79.451930 
5.200000 	 0.400000 	 79.206852 
5.400000 	 0.400000 	 78.735230 
5.600000 	 0.400000 	 77.869064 
5.800000 	 0.400000 	 77.491820 
6.000000 	 0.400000 	 77.491820 
0.000000 	 0.600000 	 0.000000 
0.200000 	 0.600000 	 4.447222 
0.400000 	 0.600000 	 9.284397 
0.600000 	 0.600000 	 15.134267 
0.800000 	 0.600000 	 22.632194 
1.000000 	 0.600000 	 32.643233 
1.200000 	 0.600000 	 42.226817 
1.400000 	 0.600000 	 50.578575 
1.600000 	 0.600000 	 57.024153 
1.800000 	 0.600000 	 61.774243 
2.000000 	 0.600000 	 65.252945 
2.200000 	 0.600000 	 67.828618 
2.400000 	 0.600000 	 69.767811 
2.600000 	 0.600000 	 71.252921 
2.800000 	 0.600000 	 72.407526 
3.000000 	 0.600000 	 73.316098 
3.200000 	 0.600000 	 74.037276 
3.400000 	 0.600000 	 74.612403 
3.600000 	 0.600000 	 75.070926 
3.800000 	 0.600000 	 75.433798 
4.000000 	 0.600000 	 75.715549 
4.200000 	 0.600000 	 75.925426 
4.400000 	 0.600000 	 76.067763 
4.600000 	 0.600000 	 76.141587 
4.800000 	 0.600000 	 76.139334 
5.000000 	 0.600000 	 76.044519 
5.200000 	 0.600000 	 75.828826 
5.400000 	 0.600000 	 75.451799 
5.600000 	 0.600000 	 74.876383 
5.800000 	 0.600000 	 74.592936 
6.000000 	 0.600000 	 74.592936 
0.000000 	 0.800000 	 0.000000 
0.200000 	 0.800000 	 4.891115 
0.400000 	 0.800000 	 10.007326 
0.600000 	 0.800000 	 15.775191 
0.800000 	 0.800000 	 22.482865 
1.000000 	 0.800000 	 30.248547 
1.200000 	 0.800000 	 37.957613 
1.400000 	 0.800000 	 44.908125 
1.600000 	 0.800000 	 50.696089 
1.800000 	 0.800000 	 55.305912 
2.000000 	 0.800000 	 58.909228 
2.200000 	 0.800000 	 61.715662 
2.400000 	 0.800000 	 63.910416 
2.600000 	 0.800000 	 65.639317 
2.800000 	 0.800000 	 67.011941 
3.000000 	 0.800000 	 68.109236 
3.200000 	 0.800000 	 68.990814 
3.400000 	 0.800000 	 69.700663 
3.600000 	 0.800000 	 70.271290 
3.800000 	 0.800000 	 70.726596 
4.000000 	 0.800000 	 71.083803 
4.200000 	 0.800000 	 71.354652 
4.400000 	 0.800000 	 71.546053 
4.600000 	 0.800000 	 71.660284 
4.800000 	 0.800000 	 71.694944 
5.000000 	 0.800000 	 71.643099 
5.200000 	 0.800000 	 71.494933 
5.400000 	 0.800000 	 71.244215 
5.600000 	 0.800000 	 70.906641 
5.800000 	 0.800000 	 70.725512 
6.000000 	 0.800000 	 70.725512 
0.000000 	 1.000000 	 0.000000 
0.200000 	 1.000000 	 4.982895 
0.400000 	 1.000000 	 10.051097 
0.600000 	 1.000000 	 15.490148 
0.800000 	 1.000000 	 21.426873 
1.000000 	 1.000000 	 27.810182 
1.200000 	 1.000000 	 34.157155 
1.400000 	 1.000000 	 40.029956 
1.600000 	 1.000000 	 45.153539 
1.800000 	 1.000000 	 49.450389 
2.000000 	 1.000000 	 52.972996 
2.200000 	 1.000000 	 55.829504 
2.400000 	 1.000000 	 58.137561 
2.600000 	 1.000000 	 60.003318 
2.800000 	 1.000000 	 61.514949 
3.000000 	 1.000000 	 62.742800 
3.200000 	 1.000000 	 63.741887 
3.400000 	 1.000000 	 64.554800 
3.600000 	 1.000000 	 65.214289 
3.800000 	 1.000000 	 65.745325 
4.000000 	 1.000000 	 66.166639 
4.200000 	 1.000000 	 66.491842 
4.400000 	 1.000000 	 66.730216 
4.600000 	 1.000000 	 66.887338 
4.800000 	 1.000000 	 66.965794 
5.000000 	 1.000000 	 66.966476 
5.200000 	 1.000000 	 66.891429 
5.400000 	 1.000000 	 66.749823 
5.600000 	 1.000000 	 66.568726 
5.800000 	 1.000000 	 66.465232 
6.000000 	 1.000000 	 66.465232 
0.000000 	 1.200000 	 0.000000 
0.200000 	 1.200000 	 4.846442 
0.400000 	 1.200000 	 9.681412 
0.600000 	 1.200000 	 14.700246 
0.800000 	 1.200000 	 19.960338 
1.000000 	 1.200000 	 25.392098 
1.200000 	 1.200000 	 30.754409 
1.400000 	 1.200000 	 35.789328 
1.600000 	 1.200000 	 40.311654 
1.800000 	 1.200000 	 44.239176 
2.000000 	 1.200000 	 47.573038 
2.200000 	 1.200000 	 50.363131 
2.400000 	 1.200000 	 52.679524 
2.600000 	 1.200000 	 54.594917 
2.800000 	 1.200000 	 56.175932 
3.000000 	 1.200000 	 57.479868 
3.200000 	 1.200000 	 58.554283 
3.400000 	 1.200000 	 59.437825 
3.600000 	 1.200000 	 60.161453 
3.800000 	 1.200000 	 60.749675 
4.000000 	 1.200000 	 61.221632 
4.200000 	 1.200000 	 61.592016 
4.400000 	 1.200000 	 61.871861 
4.600000 	 1.200000 	 62.069329 
4.800000 	 1.200000 	 62.190686 
5.000000 	 1.200000 	 62.241786 
5.200000 	 1.200000 	 62.230510 
5.400000 	 1.200000 	 62.170533 
5.600000 	 1.200000 	 62.086011 
5.800000 	 1.200000 	 62.034262 
6.000000 	 1.200000 	 62.034262 
0.000000 	 1.400000 	 0.000000 
0.200000 	 1.400000 	 4.575313 
0.400000 	 1.400000 	 9.080679 
0.600000 	 1.400000 	 13.655495 
0.800000 	 1.400000 	 18.327753 
1.000000 	 1.400000 	 23.040861 
1.200000 	 1.400000 	 27.659293 
1.400000 	 1.400000 	 32.028444 
1.600000 	 1.400000 	 36.024851 
1.800000 	 1.400000 	 39.579216 
2.000000 	 1.400000 	 42.673805 
2.200000 	 1.400000 	 45.327538 
2.400000 	 1.400000 	 47.579898 
2.600000 	 1.400000 	 49.478626 
2.800000 	 1.400000 	 51.071989 
3.000000 	 1.400000 	 52.404652 
3.200000 	 1.400000 	 53.515904 
3.400000 	 1.400000 	 54.439232 
3.600000 	 1.400000 	 55.202581 
3.800000 	 1.400000 	 55.828919 
4.000000 	 1.400000 	 56.336884 
4.200000 	 1.400000 	 56.741456 
4.400000 	 1.400000 	 57.054640 
4.600000 	 1.400000 	 57.286207 
4.800000 	 1.400000 	 57.444614 
5.000000 	 1.400000 	 57.538236 
5.200000 	 1.400000 	 57.577010 
5.400000 	 1.400000 	 57.574386 
5.600000 	 1.400000 	 57.548835 
5.800000 	 1.400000 	 57.529851 
6.000000 	 1.400000 	 57.529851 
0.000000 	 1.600000 	 0.000000 
0.200000 	 1.600000 	 4.231897 
0.400000 	 1.600000 	 8.363144 
0.600000 	 1.600000 	 12.498072 
0.800000 	 1.600000 	 16.651920 
1.000000 	 1.600000 	 20.783053 
1.200000 	 1.600000 	 24.808217 
1.400000 	 1.600000 	 28.630787 
1.600000 	 1.600000 	 32.167790 
1.800000 	 1.600000 	 35.365367 
2.000000 	 1.600000 	 38.201257 
2.200000 	 1.600000 	 40.679058 
2.400000 	 1.600000 	 42.819704 
2.600000 	 1.600000 	 44.653596 
2.800000 	 1.600000 	 46.214732 
3.000000 	 1.600000 	 47.536908 
3.200000 	 1.600000 	 48.651567 
3.400000 	 1.600000 	 49.586778 
3.600000 	 1.600000 	 50.366919 
3.800000 	 1.600000 	 51.012761 
4.000000 	 1.600000 	 51.541772 
4.200000 	 1.600000 	 51.968546 
4.400000 	 1.600000 	 52.305310 
4.600000 	 1.600000 	 52.562525 
4.800000 	 1.600000 	 52.749611 
5.000000 	 1.600000 	 52.875814 
5.200000 	 1.600000 	 52.951179 
5.400000 	 1.600000 	 52.987403 
5.600000 	 1.600000 	 52.998032 
5.800000 	 1.600000 	 52.999399 
6.000000 	 1.600000 	 52.999399 
0.000000 	 1.800000 	 0.000000 
0.200000 	 1.800000 	 3.854854 
0.400000 	 1.800000 	 7.596526 
0.600000 	 1.800000 	 11.306573 
0.800000 	 1.800000 	 14.994418 
1.000000 	 1.800000 	 18.629815 
1.200000 	 1.800000 	 22.158080 
1.400000 	 1.800000 	 25.515912 
1.600000 	 1.800000 	 28.646394 
1.800000 	 1.800000 	 31.508858 
2.000000 	 1.800000 	 34.082182 
2.200000 	 1.800000 	 36.363026 
2.400000 	 1.800000 	 38.361549 
2.600000 	 1.800000 	 40.096631 
2.800000 	 1.800000 	 41.591773 
3.000000 	 1.800000 	 42.872045 
3.200000 	 1.800000 	 43.962063 
3.400000 	 1.800000 	 44.884798 
3.600000 	 1.800000 	 45.660973 
3.800000 	 1.800000 	 46.308860 
4.000000 	 1.800000 	 46.844333 
4.200000 	 1.800000 	 47.281089 
4.400000 	 1.800000 	 47.630976 
4.600000 	 1.800000 	 47.904423 
4.800000 	 1.800000 	 48.110944 
5.000000 	 1.800000 	 48.259684 
5.200000 	 1.800000 	 48.359940 
5.400000 	 1.800000 	 48.421458 
5.600000 	 1.800000 	 48.454202 
5.800000 	 1.800000 	 48.468023 
6.000000 	 1.800000 	 48.468023 
0.000000 	 2.000000 	 0.000000 
0.200000 	 2.000000 	 3.466855 
0.400000 	 2.000000 	 6.819152 
0.600000 	 2.000000 	 10.122896 
0.800000 	 2.000000 	 13.384679 
1.000000 	 2.000000 	 16.582194 
1.200000 	 2.000000 	 19.677589 
1.400000 	 2.000000 	 22.627503 
1.600000 	 2.000000 	 25.391862 
1.800000 	 2.000000 	 27.940124 
2.000000 	 2.000000 	 30.254099 
2.200000 	 2.000000 	 32.327780 
2.400000 	 2.000000 	 34.165283 
2.600000 	 2.000000 	 35.778058 
2.800000 	 2.000000 	 37.182146 
3.000000 	 2.000000 	 38.395906 
3.200000 	 2.000000 	 39.438322 
3.400000 	 2.000000 	 40.327865 
3.600000 	 2.000000 	 41.081807 
3.800000 	 2.000000 	 41.715870 
4.000000 	 2.000000 	 42.244114 
4.200000 	 2.000000 	 42.679004 
4.400000 	 2.000000 	 43.031588 
4.600000 	 2.000000 	 43.311758 
4.800000 	 2.000000 	 43.528568 
5.000000 	 2.000000 	 43.690549 
5.200000 	 2.000000 	 43.805952 
5.400000 	 2.000000 	 43.882797 
5.600000 	 2.000000 	 43.928573 
5.800000 	 2.000000 	 43.949746 
6.000000 	 2.000000 	 43.949746 
0.000000 	 2.200000 	 0.000000 
0.200000 	 2.200000 	 3.080449 
0.400000 	 2.200000 	 6.051497 
0.600000 	 2.200000 	 8.967881 
0.800000 	 2.200000 	 11.834715 
1.000000 	 2.200000 	 14.635199 
1.200000 	 2.200000 	 17.342018 
1.400000 	 2.200000 	 19.924294 
1.600000 	 2.200000 	 22.353060 
1.800000 	 2.200000 	 24.605252 
2.000000 	 2.200000 	 26.665846 
2.200000 	 2.200000 	 28.528222 
2.400000 	 2.200000 	 30.193248 
2.600000 	 2.200000 	 31.667673 
2.800000 	 2.200000 	 32.962352 
3.000000 	 2.200000 	 34.090620 
3.200000 	 2.200000 	 35.066965 
3.400000 	 2.200000 	 35.906048 
3.600000 	 2.200000 	 36.622040 
3.800000 	 2.200000 	 37.228218 
4.000000 	 2.200000 	 37.736771 
4.200000 	 2.200000 	 38.158752 
4.400000 	 2.200000 	 38.504140 
4.600000 	 2.200000 	 38.781980 
4.800000 	 2.200000 	 39.000551 
5.000000 	 2.200000 	 39.167522 
5.200000 	 2.200000 	 39.290052 
5.400000 	 2.200000 	 39.374735 
5.600000 	 2.200000 	 39.427343 
5.800000 	 2.200000 	 39.452437 
6.000000 	 2.200000 	 39.452437 
0.000000 	 2.400000 	 0.000000 
0.200000 	 2.400000 	 2.702016 
0.400000 	 2.400000 	 5.303442 
0.600000 	 2.400000 	 7.850329 
0.800000 	 2.400000 	 10.346962 
1.000000 	 2.400000 	 12.780466 
1.200000 	 2.400000 	 15.130505 
1.400000 	 2.400000 	 17.374393 
1.600000 	 2.400000 	 19.490699 
1.800000 	 2.400000 	 21.461849 
2.000000 	 2.400000 	 23.275670 
2.200000 	 2.400000 	 24.925869 
2.400000 	 2.400000 	 26.411665 
2.600000 	 2.400000 	 27.736884 
2.800000 	 2.400000 	 28.908822 
3.000000 	 2.400000 	 29.937112 
3.200000 	 2.400000 	 30.832726 
3.400000 	 2.400000 	 31.607181 
3.600000 	 2.400000 	 32.271946 
3.800000 	 2.400000 	 32.838054 
4.000000 	 2.400000 	 33.315865 
4.200000 	 2.400000 	 33.714955 
4.400000 	 2.400000 	 34.044106 
4.600000 	 2.400000 	 34.311340 
4.800000 	 2.400000 	 34.524000 
5.000000 	 2.400000 	 34.688806 
5.200000 	 2.400000 	 34.811870 
5.400000 	 2.400000 	 34.898618 
5.600000 	 2.400000 	 34.953592 
5.800000 	 2.400000 	 34.980189 
6.000000 	 2.400000 	 34.980189 
0.000000 	 2.600000 	 0.000000 
0.200000 	 2.600000 	 2.334267 
0.400000 	 2.600000 	 4.578686 
0.600000 	 2.600000 	 6.772206 
0.800000 	 2.600000 	 8.918600 
1.000000 	 2.600000 	 11.007919 
1.200000 	 2.600000 	 13.024706 
1.400000 	 2.600000 	 14.951923 
1.600000 	 2.600000 	 16.773430 
1.800000 	 2.600000 	 18.475736 
2.000000 	 2.600000 	 20.049081 
2.200000 	 2.600000 	 21.487884 
2.400000 	 2.600000 	 22.790625 
2.600000 	 2.600000 	 23.959341 
2.800000 	 2.600000 	 24.998906 
3.000000 	 2.600000 	 25.916246 
3.200000 	 2.600000 	 26.719617 
3.400000 	 2.600000 	 27.417973 
3.600000 	 2.600000 	 28.020481 
3.800000 	 2.600000 	 28.536161 
4.000000 	 2.600000 	 28.973653 
4.200000 	 2.600000 	 29.341076 
4.400000 	 2.600000 	 29.645964 
4.600000 	 2.600000 	 29.895251 
4.800000 	 2.600000 	 30.095281 
5.000000 	 2.600000 	 30.251810 
5.200000 	 2.600000 	 30.369983 
5.400000 	 2.600000 	 30.454254 
5.600000 	 2.600000 	 30.508241 
5.800000 	 2.600000 	 30.534556 
6.000000 	 2.600000 	 30.534556 
0.000000 	 2.800000 	 0.000000 
0.200000 	 2.800000 	 1.977774 
0.400000 	 2.800000 	 3.877375 
0.600000 	 2.800000 	 5.731639 
0.800000 	 2.800000 	 7.543991 
1.000000 	 2.800000 	 9.306759 
1.200000 	 2.800000 	 11.008089 
1.400000 	 2.800000 	 12.635033 
1.600000 	 2.800000 	 14.175322 
1.800000 	 2.800000 	 15.618570 
2.000000 	 2.800000 	 16.957030 
2.200000 	 2.800000 	 18.185959 
2.400000 	 2.800000 	 19.303610 
2.600000 	 2.800000 	 20.310953 
2.800000 	 2.800000 	 21.211216 
3.000000 	 2.800000 	 22.009355 
3.200000 	 2.800000 	 22.711529 
3.400000 	 2.800000 	 23.324621 
3.600000 	 2.800000 	 23.855851 
3.800000 	 2.800000 	 24.312464 
4.000000 	 2.800000 	 24.701520 
4.200000 	 2.800000 	 25.029742 
4.400000 	 2.800000 	 25.303435 
4.600000 	 2.800000 	 25.528433 
4.800000 	 2.800000 	 25.710077 
5.000000 	 2.800000 	 25.853185 
5.200000 	 2.800000 	 25.962015 
5.400000 	 2.800000 	 26.040189 
5.600000 	 2.800000 	 26.090595 
5.800000 	 2.800000 	 26.115274 
6.000000 	 2.800000 	 26.115274 
0.000000 	 3.000000 	 0.000000 
0.200000 	 3.000000 	 1.631880 
0.400000 	 3.000000 	 3.197646 
0.600000 	 3.000000 	 4.724657 
0.800000 	 3.000000 	 6.216057 
1.000000 	 3.000000 	 7.666027 
1.200000 	 3.000000 	 9.065514 
1.400000 	 3.000000 	 10.404683 
1.600000 	 3.000000 	 11.674224 
1.800000 	 3.000000 	 12.866187 
2.000000 	 3.000000 	 13.974516 
2.200000 	 3.000000 	 14.995321 
2.400000 	 3.000000 	 15.926915 
2.600000 	 3.000000 	 16.769658 
2.800000 	 3.000000 	 17.525663 
3.000000 	 3.000000 	 18.198444 
3.200000 	 3.000000 	 18.792537 
3.400000 	 3.000000 	 19.313150 
3.600000 	 3.000000 	 19.765855 
3.800000 	 3.000000 	 20.156344 
4.000000 	 3.000000 	 20.490240 
4.200000 	 3.000000 	 20.772959 
4.400000 	 3.000000 	 21.009622 
4.600000 	 3.000000 	 21.204991 
4.800000 	 3.000000 	 21.363430 
5.000000 	 3.000000 	 21.488862 
5.200000 	 3.000000 	 21.584726 
5.400000 	 3.000000 	 21.653917 
5.600000 	 3.000000 	 21.698715 
5.800000 	 3.000000 	 21.720708 
6.000000 	 3.000000 	 21.720708 
0.000000 	 3.200000 	 0.000000 
0.200000 	 3.200000 	 1.295227 
0.400000 	 3.200000 	 2.536519 
0.600000 	 3.200000 	 3.746166 
0.800000 	 3.200000 	 4.927049 
1.000000 	 3.200000 	 6.074904 
1.200000 	 3.200000 	 7.182956 
1.400000 	 3.200000 	 8.243862 
1.600000 	 3.200000 	 9.250677 
1.800000 	 3.200000 	 10.197437 
2.000000 	 3.200000 	 11.079532 
2.200000 	 3.200000 	 11.893904 
2.400000 	 3.200000 	 12.639085 
2.600000 	 3.200000 	 13.315113 
2.800000 	 3.200000 	 13.923348 
3.000000 	 3.200000 	 14.466236 
3.200000 	 3.200000 	 14.947042 
3.400000 	 3.200000 	 15.369602 
3.600000 	 3.200000 	 15.738092 
3.800000 	 3.200000 	 16.056837 
4.000000 	 3.200000 	 16.330156 
4.200000 	 3.200000 	 16.562252 
4.400000 	 3.200000 	 16.757122 
4.600000 	 3.200000 	 16.918501 
4.800000 	 3.200000 	 17.049813 
5.000000 	 3.200000 	 17.154130 
5.200000 	 3.200000 	 17.234133 
5.400000 	 3.200000 	 17.292064 
5.600000 	 3.200000 	 17.329671 
5.800000 	 3.200000 	 17.348168 
6.000000 	 3.200000 	 17.348168 
0.000000 	 3.400000 	 0.000000 
0.200000 	 3.400000 	 0.966046 
0.400000 	 3.400000 	 1.890384 
0.600000 	 3.400000 	 2.790497 
0.800000 	 3.400000 	 3.668962 
1.000000 	 3.400000 	 4.522839 
1.200000 	 3.400000 	 5.347286 
1.400000 	 3.400000 	 6.137048 
1.600000 	 3.400000 	 6.887159 
1.800000 	 3.400000 	 7.593348 
2.000000 	 3.400000 	 8.252278 
2.200000 	 3.400000 	 8.861687 
2.400000 	 3.400000 	 9.420418 
2.600000 	 3.400000 	 9.928372 
2.800000 	 3.400000 	 10.386395 
3.000000 	 3.400000 	 10.796123 
3.200000 	 3.400000 	 11.159808 
3.400000 	 3.400000 	 11.480140 
3.600000 	 3.400000 	 11.760091 
3.800000 	 3.400000 	 12.002770 
4.000000 	 3.400000 	 12.211313 
4.200000 	 3.400000 	 12.388788 
4.400000 	 3.400000 	 12.538132 
4.600000 	 3.400000 	 12.662098 
4.800000 	 3.400000 	 12.763209 
5.000000 	 3.400000 	 12.843730 
5.200000 	 3.400000 	 12.905632 
5.400000 	 3.400000 	 12.950553 
5.600000 	 3.400000 	 12.979767 
5.800000 	 3.400000 	 12.994152 
6.000000 	 3.400000 	 12.994152 
0.000000 	 3.600000 	 0.000000 
0.200000 	 3.600000 	 0.642257 
0.400000 	 3.600000 	 1.255232 
0.600000 	 3.600000 	 1.851681 
0.800000 	 3.600000 	 2.433740 
1.000000 	 3.600000 	 2.999590 
1.200000 	 3.600000 	 3.546086 
1.400000 	 3.600000 	 4.069810 
1.600000 	 3.600000 	 4.567542 
1.800000 	 3.600000 	 5.036514 
2.000000 	 3.600000 	 5.474550 
2.200000 	 3.600000 	 5.880156 
2.400000 	 3.600000 	 6.252536 
2.600000 	 3.600000 	 6.591570 
2.800000 	 3.600000 	 6.897745 
3.000000 	 3.600000 	 7.172064 
3.200000 	 3.600000 	 7.415936 
3.400000 	 3.600000 	 7.631070 
3.600000 	 3.600000 	 7.819373 
3.800000 	 3.600000 	 7.982852 
4.000000 	 3.600000 	 8.123549 
4.200000 	 3.600000 	 8.243467 
4.400000 	 3.600000 	 8.344535 
4.600000 	 3.600000 	 8.428561 
4.800000 	 3.600000 	 8.497208 
5.000000 	 3.600000 	 8.551965 
5.200000 	 3.600000 	 8.594126 
5.400000 	 3.600000 	 8.624764 
5.600000 	 3.600000 	 8.644712 
5.800000 	 3.600000 	 8.654542 
6.000000 	 3.600000 	 8.654542 
0.000000 	 3.800000 	 0.000000 
0.200000 	 3.800000 	 0.321380 
0.400000 	 3.800000 	 0.626702 
0.600000 	 3.800000 	 0.923583 
0.800000 	 3.800000 	 1.213377 
1.000000 	 3.800000 	 1.495204 
1.200000 	 3.800000 	 1.767482 
1.400000 	 3.800000 	 2.028502 
1.600000 	 3.800000 	 2.276668 
1.800000 	 3.800000 	 2.510610 
2.000000 	 3.800000 	 2.729254 
2.200000 	 3.800000 	 2.931854 
2.400000 	 3.800000 	 3.118005 
2.600000 	 3.800000 	 3.287633 
2.800000 	 3.800000 	 3.440958 
3.000000 	 3.800000 	 3.578457 
3.200000 	 3.800000 	 3.700808 
3.400000 	 3.800000 	 3.808840 
3.600000 	 3.800000 	 3.903484 
3.800000 	 3.800000 	 3.985726 
4.000000 	 3.800000 	 4.056569 
4.200000 	 3.800000 	 4.117005 
4.400000 	 3.800000 	 4.167988 
4.600000 	 3.800000 	 4.210413 
4.800000 	 3.800000 	 4.245106 
5.000000 	 3.800000 	 4.272805 
5.200000 	 3.800000 	 4.294151 
5.400000 	 3.800000 	 4.309675 
5.600000 	 3.800000 	 4.319789 
5.800000 	 3.800000 	 4.324775 
6.000000 	 3.800000 	 4.324775 
0.000000 	 4.000000 	 0.000000 
0.200000 	 4.000000 	 0.000000 
0.400000 	 4.000000 	 0.000000 
0.600000 	 4.000000 	 0.000000 
0.800000 	 4.000000 	 0.000000 
1.000000 	 4.000000 	 0.000000 
1.200000 	 4.000000 	 0.000000 
1.400000 	 4.000000 	 0.000000 
1.600000 	 4.000000 	 0.000000 
1.800000 	 4.000000 	 0.000000 
2.000000 	 4.000000 	 0.000000 
2.200000 	 4.000000 	 0.000000 
2.400000 	 4.000000 	 0.000000 
2.600000 	 4.000000 	 0.000000 
2.800000 	 4.000000 	 0.000000 
3.000000 	 4.000000 	 0.000000 
3.200000 	 4.000000 	 0.000000 
3.400000 	 4.000000 	 0.000000 
3.600000 	 4.000000 	 0.000000 
3.800000 	 4.000000 	 0.000000 
4.000000 	 4.000000 	 0.000000 
4.200000 	 4.000000 	 0.000000 
4.400000 	 4.000000 	 0.000000 
4.600000 	 4.000000 	 0.000000 
4.800000 	 4.000000 	 0.000000 
5.000000 	 4.000000 	 0.000000 
5.200000 	 4.000000 	 0.000000 
5.400000 	 4.000000 	 0.000000 
5.600000 	 4.000000 	 0.000000 
5.800000 	 4.000000 	 0.000000 
6.000000 	 4.000000 	 0.000000 
