Variables= "X","Y"
zone T= "BLOCK1", I=10, J=1

-0.000000	 0.041330
0.010000	 0.023166
0.020000	 0.016890
0.030000	 0.013514
0.040000	 0.011226
0.050000	 0.009620
0.060000	 0.008447
0.070000	 0.007556
0.080000	 0.006856
0.090000	 0.006290
0.100000	 0.005822
0.110000	 0.005428
0.120000	 0.005091
0.130000	 0.004800
0.140000	 0.004544
0.150000	 0.004318
0.160000	 0.004117
0.170000	 0.003936
0.180000	 0.003773
0.190000	 0.003625
0.200000	 0.003490
0.210000	 0.003366
0.220000	 0.003251
0.230000	 0.003146
0.240000	 0.003048
0.250000	 0.002957
0.260000	 0.002872
0.270000	 0.002792
0.280000	 0.002718
0.290000	 0.002648
0.300000	 0.002582
0.310000	 0.002520
0.320000	 0.002461
0.330000	 0.002405
0.340000	 0.002352
0.350000	 0.002302
0.360000	 0.002254
0.370000	 0.002208
0.380000	 0.002165
0.390000	 0.002123
0.400000	 0.002084
0.410000	 0.002046
0.420000	 0.002009
0.430000	 0.001974
0.440000	 0.001941
0.450000	 0.001908
0.460000	 0.001877
0.470000	 0.001848
0.480000	 0.001819
0.490000	 0.001791
0.500000	 0.001764
0.510000	 0.001738
0.520000	 0.001713
0.530000	 0.001689
0.540000	 0.001666
0.550000	 0.001643
0.560000	 0.001621
0.570000	 0.001600
0.580000	 0.001579
0.590000	 0.001559
0.600000	 0.001540
0.610000	 0.001521
0.620000	 0.001502
0.630000	 0.001484
0.640000	 0.001467
0.650000	 0.001450
0.660000	 0.001434
0.670000	 0.001418
0.680000	 0.001402
0.690000	 0.001387
0.700000	 0.001372
0.710000	 0.001358
0.720000	 0.001343
0.730000	 0.001330
0.740000	 0.001316
0.750000	 0.001303
0.760000	 0.001290
0.770000	 0.001278
0.780000	 0.001265
0.790000	 0.001253
0.800000	 0.001242
0.810000	 0.001230
0.820000	 0.001219
0.830000	 0.001208
0.840000	 0.001197
0.850000	 0.001187
0.860000	 0.001176
0.870000	 0.001166
0.880000	 0.001156
0.890000	 0.001147
0.900000	 0.001137
0.910000	 0.001128
0.920000	 0.001118
0.930000	 0.001109
0.940000	 0.001101
0.950000	 0.001092
0.960000	 0.001083
0.970000	 0.001075
0.980000	 0.001067
0.990000	 0.001059
1.000000	 0.001051
1.010000	 0.001043
1.020000	 0.001035
1.030000	 0.001028
1.040000	 0.001021
1.050000	 0.001013
1.060000	 0.001006
1.070000	 0.000999
1.080000	 0.000992
1.090000	 0.000985
1.100000	 0.000979
1.110000	 0.000972
1.120000	 0.000966
1.130000	 0.000959
1.140000	 0.000953
1.150000	 0.000947
1.160000	 0.000941
1.170000	 0.000935
1.180000	 0.000929
1.190000	 0.000923
1.200000	 0.000917
1.210000	 0.000912
1.220000	 0.000906
1.230000	 0.000900
1.240000	 0.000895
1.250000	 0.000890
1.260000	 0.000884
1.270000	 0.000879
1.280000	 0.000874
1.290000	 0.000869
1.300000	 0.000864
1.310000	 0.000859
1.320000	 0.000854
1.330000	 0.000850
1.340000	 0.000845
1.350000	 0.000840
1.360000	 0.000836
1.370000	 0.000831
1.380000	 0.000827
1.390000	 0.000822
1.400000	 0.000818
1.410000	 0.000814
1.420000	 0.000810
1.430000	 0.000805
1.440000	 0.000801
1.450000	 0.000797
1.460000	 0.000793
1.470000	 0.000789
1.480000	 0.000785
1.490000	 0.000781
1.500000	 0.000778
1.510000	 0.000774
1.520000	 0.000770
1.530000	 0.000766
1.540000	 0.000763
1.550000	 0.000759
1.560000	 0.000756
1.570000	 0.000752
1.580000	 0.000749
1.590000	 0.000745
1.600000	 0.000742
1.610000	 0.000739
1.620000	 0.000735
1.630000	 0.000732
1.640000	 0.000729
1.650000	 0.000726
1.660000	 0.000722
1.670000	 0.000719
1.680000	 0.000716
1.690000	 0.000713
1.700000	 0.000710
1.710000	 0.000707
1.720000	 0.000704
1.730000	 0.000701
1.740000	 0.000698
1.750000	 0.000696
1.760000	 0.000693
1.770000	 0.000690
1.780000	 0.000687
1.790000	 0.000685
1.800000	 0.000682
1.810000	 0.000679
1.820000	 0.000677
1.830000	 0.000674
1.840000	 0.000671
1.850000	 0.000669
1.860000	 0.000666
1.870000	 0.000664
1.880000	 0.000661
1.890000	 0.000659
1.900000	 0.000657
1.910000	 0.000654
1.920000	 0.000652
1.930000	 0.000649
1.940000	 0.000647
1.950000	 0.000645
1.960000	 0.000643
1.970000	 0.000640
1.980000	 0.000638
1.990000	 0.000636
2.000000	 0.000634
2.010000	 0.000632
2.020000	 0.000629
2.030000	 0.000627
2.040000	 0.000625
2.050000	 0.000623
2.060000	 0.000621
2.070000	 0.000619
2.080000	 0.000617
2.090000	 0.000615
2.100000	 0.000613
2.110000	 0.000611
2.120000	 0.000609
2.130000	 0.000607
2.140000	 0.000606
2.150000	 0.000604
2.160000	 0.000602
2.170000	 0.000600
2.180000	 0.000598
2.190000	 0.000596
2.200000	 0.000595
2.210000	 0.000593
2.220000	 0.000591
2.230000	 0.000589
2.240000	 0.000588
2.250000	 0.000586
2.260000	 0.000584
2.270000	 0.000583
2.280000	 0.000581
2.290000	 0.000579
2.300000	 0.000578
2.310000	 0.000576
2.320000	 0.000574
2.330000	 0.000573
2.340000	 0.000571
2.350000	 0.000570
2.360000	 0.000568
2.370000	 0.000567
2.380000	 0.000565
2.390000	 0.000564
2.400000	 0.000562
2.410000	 0.000561
2.420000	 0.000559
2.430000	 0.000558
2.440000	 0.000556
2.450000	 0.000555
2.460000	 0.000554
2.470000	 0.000552
2.480000	 0.000551
2.490000	 0.000549
2.500000	 0.000548
2.510000	 0.000547
2.520000	 0.000545
2.530000	 0.000544
2.540000	 0.000543
2.550000	 0.000541
2.560000	 0.000540
2.570000	 0.000539
2.580000	 0.000538
2.590000	 0.000536
2.600000	 0.000535
2.610000	 0.000534
2.620000	 0.000533
2.630000	 0.000531
2.640000	 0.000530
2.650000	 0.000529
2.660000	 0.000528
2.670000	 0.000527
2.680000	 0.000525
2.690000	 0.000524
2.700000	 0.000523
2.710000	 0.000522
2.720000	 0.000521
2.730000	 0.000520
2.740000	 0.000518
2.750000	 0.000517
2.760000	 0.000516
2.770000	 0.000515
2.780000	 0.000514
2.790000	 0.000513
2.800000	 0.000512
2.810000	 0.000511
2.820000	 0.000510
2.830000	 0.000509
2.840000	 0.000508
2.850000	 0.000507
2.860000	 0.000506
2.870000	 0.000505
2.880000	 0.000504
2.890000	 0.000503
2.900000	 0.000502
2.910000	 0.000501
2.920000	 0.000500
2.930000	 0.000499
2.940000	 0.000498
2.950000	 0.000497
2.960000	 0.000496
2.970000	 0.000495
2.980000	 0.000494
2.990000	 0.000493
3.000000	 0.000492
3.010000	 0.000491
3.020000	 0.000490
3.030000	 0.000489
3.040000	 0.000488
3.050000	 0.000487
3.060000	 0.000486
3.070000	 0.000486
3.080000	 0.000485
3.090000	 0.000484
3.100000	 0.000483
3.110000	 0.000482
3.120000	 0.000481
3.130000	 0.000480
3.140000	 0.000479
3.150000	 0.000479
3.160000	 0.000478
3.170000	 0.000477
3.180000	 0.000476
3.190000	 0.000475
3.200000	 0.000474
3.210000	 0.000474
3.220000	 0.000473
3.230000	 0.000472
3.240000	 0.000471
3.250000	 0.000470
3.260000	 0.000470
3.270000	 0.000469
3.280000	 0.000468
3.290000	 0.000467
3.300000	 0.000466
3.310000	 0.000466
3.320000	 0.000465
3.330000	 0.000464
3.340000	 0.000463
3.350000	 0.000463
3.360000	 0.000462
3.370000	 0.000461
3.380000	 0.000460
3.390000	 0.000460
3.400000	 0.000459
3.410000	 0.000458
3.420000	 0.000457
3.430000	 0.000457
3.440000	 0.000456
3.450000	 0.000455
3.460000	 0.000455
3.470000	 0.000454
3.480000	 0.000453
3.490000	 0.000452
3.500000	 0.000452
3.510000	 0.000451
3.520000	 0.000450
3.530000	 0.000450
3.540000	 0.000449
3.550000	 0.000448
3.560000	 0.000448
3.570000	 0.000447
3.580000	 0.000446
3.590000	 0.000446
3.600000	 0.000445
3.610000	 0.000444
3.620000	 0.000444
3.630000	 0.000443
3.640000	 0.000442
3.650000	 0.000442
3.660000	 0.000441
3.670000	 0.000440
3.680000	 0.000440
3.690000	 0.000439
3.700000	 0.000438
3.710000	 0.000438
3.720000	 0.000437
3.730000	 0.000436
3.740000	 0.000436
3.750000	 0.000435
3.760000	 0.000435
3.770000	 0.000434
3.780000	 0.000433
3.790000	 0.000433
3.800000	 0.000432
3.810000	 0.000431
3.820000	 0.000431
3.830000	 0.000430
3.840000	 0.000430
3.850000	 0.000429
3.860000	 0.000428
3.870000	 0.000428
3.880000	 0.000427
3.890000	 0.000427
3.900000	 0.000426
3.910000	 0.000425
3.920000	 0.000425
3.930000	 0.000424
3.940000	 0.000424
3.950000	 0.000423
3.960000	 0.000423
3.970000	 0.000422
3.980000	 0.000421
3.990000	 0.000421
4.000000	 0.000420
4.010000	 0.000420
4.020000	 0.000419
4.030000	 0.000419
4.040000	 0.000418
4.050000	 0.000417
4.060000	 0.000417
4.070000	 0.000416
4.080000	 0.000416
4.090000	 0.000415
4.100000	 0.000415
4.110000	 0.000414
4.120000	 0.000414
4.130000	 0.000413
4.140000	 0.000412
4.150000	 0.000412
4.160000	 0.000411
4.170000	 0.000411
4.180000	 0.000410
4.190000	 0.000410
4.200000	 0.000409
4.210000	 0.000409
4.220000	 0.000408
4.230000	 0.000408
4.240000	 0.000407
4.250000	 0.000407
4.260000	 0.000406
4.270000	 0.000406
4.280000	 0.000405
4.290000	 0.000405
4.300000	 0.000404
4.310000	 0.000404
4.320000	 0.000403
4.330000	 0.000402
4.340000	 0.000402
4.350000	 0.000401
4.360000	 0.000401
4.370000	 0.000400
4.380000	 0.000400
4.390000	 0.000399
4.400000	 0.000399
4.410000	 0.000398
4.420000	 0.000398
4.430000	 0.000397
4.440000	 0.000397
4.450000	 0.000396
4.460000	 0.000396
4.470000	 0.000395
4.480000	 0.000395
4.490000	 0.000395
4.500000	 0.000394
4.510000	 0.000394
4.520000	 0.000393
4.530000	 0.000393
4.540000	 0.000392
4.550000	 0.000392
4.560000	 0.000391
4.570000	 0.000391
4.580000	 0.000390
4.590000	 0.000390
4.600000	 0.000389
4.610000	 0.000389
4.620000	 0.000388
4.630000	 0.000388
4.640000	 0.000387
4.650000	 0.000387
4.660000	 0.000386
4.670000	 0.000386
4.680000	 0.000385
4.690000	 0.000385
4.700000	 0.000385
4.710000	 0.000384
4.720000	 0.000384
4.730000	 0.000383
4.740000	 0.000383
4.750000	 0.000382
4.760000	 0.000382
4.770000	 0.000381
4.780000	 0.000381
4.790000	 0.000380
4.800000	 0.000380
4.810000	 0.000380
4.820000	 0.000379
4.830000	 0.000379
4.840000	 0.000378
4.850000	 0.000378
4.860000	 0.000377
4.870000	 0.000377
4.880000	 0.000376
4.890000	 0.000376
4.900000	 0.000376
4.910000	 0.000375
4.920000	 0.000375
4.930000	 0.000374
4.940000	 0.000374
4.950000	 0.000373
4.960000	 0.000373
4.970000	 0.000372
4.980000	 0.000372
4.990000	 0.000372
5.000000	 0.000371
5.010000	 0.000371
5.020000	 0.000370
5.030000	 0.000370
5.040000	 0.000369
5.050000	 0.000369
5.060000	 0.000369
5.070000	 0.000368
5.080000	 0.000368
5.090000	 0.000367
5.100000	 0.000367
5.110000	 0.000367
5.120000	 0.000366
5.130000	 0.000366
5.140000	 0.000365
5.150000	 0.000365
5.160000	 0.000364
5.170000	 0.000364
5.180000	 0.000364
5.190000	 0.000363
5.200000	 0.000363
5.210000	 0.000362
5.220000	 0.000362
5.230000	 0.000362
5.240000	 0.000361
5.250000	 0.000361
5.260000	 0.000360
5.270000	 0.000360
5.280000	 0.000360
5.290000	 0.000359
5.300000	 0.000359
5.310000	 0.000358
5.320000	 0.000358
5.330000	 0.000357
5.340000	 0.000357
5.350000	 0.000357
5.360000	 0.000356
5.370000	 0.000356
5.380000	 0.000355
5.390000	 0.000355
5.400000	 0.000355
5.410000	 0.000354
5.420000	 0.000354
5.430000	 0.000353
5.440000	 0.000353
5.450000	 0.000353
5.460000	 0.000352
5.470000	 0.000352
5.480000	 0.000352
5.490000	 0.000351
5.500000	 0.000351
5.510000	 0.000350
5.520000	 0.000350
5.530000	 0.000350
5.540000	 0.000349
5.550000	 0.000349
5.560000	 0.000348
5.570000	 0.000348
5.580000	 0.000348
5.590000	 0.000347
5.600000	 0.000347
5.610000	 0.000347
5.620000	 0.000346
5.630000	 0.000346
5.640000	 0.000345
5.650000	 0.000345
5.660000	 0.000345
5.670000	 0.000344
5.680000	 0.000344
5.690000	 0.000343
5.700000	 0.000343
5.710000	 0.000343
5.720000	 0.000342
5.730000	 0.000342
5.740000	 0.000342
5.750000	 0.000341
5.760000	 0.000341
5.770000	 0.000340
5.780000	 0.000340
5.790000	 0.000340
5.800000	 0.000339
5.810000	 0.000339
5.820000	 0.000339
5.830000	 0.000338
5.840000	 0.000338
5.850000	 0.000338
5.860000	 0.000337
5.870000	 0.000337
5.880000	 0.000336
5.890000	 0.000336
5.900000	 0.000336
5.910000	 0.000335
5.920000	 0.000335
5.930000	 0.000335
5.940000	 0.000334
5.950000	 0.000334
5.960000	 0.000334
5.970000	 0.000333
5.980000	 0.000333
5.990000	 0.000332
6.000000	 0.000332
6.010000	 0.000332
6.020000	 0.000331
6.030000	 0.000331
6.040000	 0.000331
6.050000	 0.000330
6.060000	 0.000330
6.070000	 0.000330
6.080000	 0.000329
6.090000	 0.000329
6.100000	 0.000329
6.110000	 0.000328
6.120000	 0.000328
6.130000	 0.000327
6.140000	 0.000327
6.150000	 0.000327
6.160000	 0.000326
6.170000	 0.000326
6.180000	 0.000326
6.190000	 0.000325
6.200000	 0.000325
6.210000	 0.000325
6.220000	 0.000324
6.230000	 0.000324
6.240000	 0.000324
6.250000	 0.000323
6.260000	 0.000323
6.270000	 0.000323
6.280000	 0.000322
6.290000	 0.000322
6.300000	 0.000322
6.310000	 0.000321
6.320000	 0.000321
6.330000	 0.000321
6.340000	 0.000320
6.350000	 0.000320
6.360000	 0.000320
6.370000	 0.000319
6.380000	 0.000319
6.390000	 0.000319
6.400000	 0.000318
6.410000	 0.000318
6.420000	 0.000318
6.430000	 0.000317
6.440000	 0.000317
6.450000	 0.000317
6.460000	 0.000316
6.470000	 0.000316
6.480000	 0.000316
6.490000	 0.000315
6.500000	 0.000315
6.510000	 0.000315
6.520000	 0.000314
6.530000	 0.000314
6.540000	 0.000314
6.550000	 0.000313
6.560000	 0.000313
6.570000	 0.000313
6.580000	 0.000312
6.590000	 0.000312
6.600000	 0.000312
6.610000	 0.000311
6.620000	 0.000311
6.630000	 0.000311
6.640000	 0.000310
6.650000	 0.000310
6.660000	 0.000310
6.670000	 0.000309
6.680000	 0.000309
6.690000	 0.000309
6.700000	 0.000308
6.710000	 0.000308
6.720000	 0.000308
6.730000	 0.000307
6.740000	 0.000307
6.750000	 0.000307
6.760000	 0.000306
6.770000	 0.000306
6.780000	 0.000306
6.790000	 0.000305
6.800000	 0.000305
6.810000	 0.000305
6.820000	 0.000304
6.830000	 0.000304
6.840000	 0.000304
6.850000	 0.000303
6.860000	 0.000303
6.870000	 0.000303
6.880000	 0.000303
6.890000	 0.000302
6.900000	 0.000302
6.910000	 0.000302
6.920000	 0.000301
6.930000	 0.000301
6.940000	 0.000301
6.950000	 0.000300
6.960000	 0.000300
6.970000	 0.000300
6.980000	 0.000299
6.990000	 0.000299
7.000000	 0.000299
7.010000	 0.000298
7.020000	 0.000298
7.030000	 0.000298
7.040000	 0.000298
7.050000	 0.000297
7.060000	 0.000297
7.070000	 0.000297
7.080000	 0.000296
7.090000	 0.000296
7.100000	 0.000296
7.110000	 0.000295
7.120000	 0.000295
7.130000	 0.000295
7.140000	 0.000294
7.150000	 0.000294
7.160000	 0.000294
7.170000	 0.000294
7.180000	 0.000293
7.190000	 0.000293
7.200000	 0.000293
7.210000	 0.000292
7.220000	 0.000292
7.230000	 0.000292
7.240000	 0.000291
7.250000	 0.000291
7.260000	 0.000291
7.270000	 0.000291
7.280000	 0.000290
7.290000	 0.000290
7.300000	 0.000290
7.310000	 0.000289
7.320000	 0.000289
7.330000	 0.000289
7.340000	 0.000288
7.350000	 0.000288
7.360000	 0.000288
7.370000	 0.000288
7.380000	 0.000287
7.390000	 0.000287
7.400000	 0.000287
7.410000	 0.000286
7.420000	 0.000286
7.430000	 0.000286
7.440000	 0.000285
7.450000	 0.000285
7.460000	 0.000285
7.470000	 0.000285
7.480000	 0.000284
7.490000	 0.000284
7.500000	 0.000284
7.510000	 0.000283
7.520000	 0.000283
7.530000	 0.000283
7.540000	 0.000283
7.550000	 0.000282
7.560000	 0.000282
7.570000	 0.000282
7.580000	 0.000281
7.590000	 0.000281
7.600000	 0.000281
7.610000	 0.000281
7.620000	 0.000280
7.630000	 0.000280
7.640000	 0.000280
7.650000	 0.000279
7.660000	 0.000279
7.670000	 0.000279
7.680000	 0.000279
7.690000	 0.000278
7.700000	 0.000278
7.710000	 0.000278
7.720000	 0.000277
7.730000	 0.000277
7.740000	 0.000277
7.750000	 0.000277
7.760000	 0.000276
7.770000	 0.000276
7.780000	 0.000276
7.790000	 0.000275
7.800000	 0.000275
7.810000	 0.000275
7.820000	 0.000275
7.830000	 0.000274
7.840000	 0.000274
7.850000	 0.000274
7.860000	 0.000273
7.870000	 0.000273
7.880000	 0.000273
7.890000	 0.000273
7.900000	 0.000272
7.910000	 0.000272
7.920000	 0.000272
7.930000	 0.000271
7.940000	 0.000271
7.950000	 0.000271
7.960000	 0.000271
7.970000	 0.000270
7.980000	 0.000270
7.990000	 0.000270
8.000000	 0.000270
8.010000	 0.000269
8.020000	 0.000269
8.030000	 0.000269
8.040000	 0.000268
8.050000	 0.000268
8.060000	 0.000268
8.070000	 0.000268
8.080000	 0.000267
8.090000	 0.000267
8.100000	 0.000267
8.110000	 0.000267
8.120000	 0.000266
8.130000	 0.000266
8.140000	 0.000266
8.150000	 0.000265
8.160000	 0.000265
8.170000	 0.000265
8.180000	 0.000265
8.190000	 0.000264
8.200000	 0.000264
8.210000	 0.000264
8.220000	 0.000264
8.230000	 0.000263
8.240000	 0.000263
8.250000	 0.000263
8.260000	 0.000262
8.270000	 0.000262
8.280000	 0.000262
8.290000	 0.000262
8.300000	 0.000261
8.310000	 0.000261
8.320000	 0.000261
8.330000	 0.000261
8.340000	 0.000260
8.350000	 0.000260
8.360000	 0.000260
8.370000	 0.000260
8.380000	 0.000259
8.390000	 0.000259
8.400000	 0.000259
8.410000	 0.000259
8.420000	 0.000258
8.430000	 0.000258
8.440000	 0.000258
8.450000	 0.000257
8.460000	 0.000257
8.470000	 0.000257
8.480000	 0.000257
8.490000	 0.000256
8.500000	 0.000256
8.510000	 0.000256
8.520000	 0.000256
8.530000	 0.000255
8.540000	 0.000255
8.550000	 0.000255
8.560000	 0.000255
8.570000	 0.000254
8.580000	 0.000254
8.590000	 0.000254
8.600000	 0.000254
8.610000	 0.000253
8.620000	 0.000253
8.630000	 0.000253
8.640000	 0.000253
8.650000	 0.000252
8.660000	 0.000252
8.670000	 0.000252
8.680000	 0.000252
8.690000	 0.000251
8.700000	 0.000251
8.710000	 0.000251
8.720000	 0.000251
8.730000	 0.000250
8.740000	 0.000250
8.750000	 0.000250
8.760000	 0.000250
8.770000	 0.000249
8.780000	 0.000249
8.790000	 0.000249
8.800000	 0.000249
8.810000	 0.000248
8.820000	 0.000248
8.830000	 0.000248
8.840000	 0.000247
8.850000	 0.000247
8.860000	 0.000247
8.870000	 0.000247
8.880000	 0.000246
8.890000	 0.000246
8.900000	 0.000246
8.910000	 0.000246
8.920000	 0.000246
8.930000	 0.000245
8.940000	 0.000245
8.950000	 0.000245
8.960000	 0.000245
8.970000	 0.000244
8.980000	 0.000244
8.990000	 0.000244
9.000000	 0.000244
9.010000	 0.000243
9.020000	 0.000243
9.030000	 0.000243
9.040000	 0.000243
9.050000	 0.000242
9.060000	 0.000242
9.070000	 0.000242
9.080000	 0.000242
9.090000	 0.000241
9.100000	 0.000241
9.110000	 0.000241
9.120000	 0.000241
9.130000	 0.000240
9.140000	 0.000240
9.150000	 0.000240
9.160000	 0.000240
9.170000	 0.000239
9.180000	 0.000239
9.190000	 0.000239
9.200000	 0.000239
9.210000	 0.000238
9.220000	 0.000238
9.230000	 0.000238
9.240000	 0.000238
9.250000	 0.000237
9.260000	 0.000237
9.270000	 0.000237
9.280000	 0.000237
9.290000	 0.000236
9.300000	 0.000236
9.310000	 0.000236
9.320000	 0.000236
9.330000	 0.000236
9.340000	 0.000235
9.350000	 0.000235
9.360000	 0.000235
9.370000	 0.000235
9.380000	 0.000234
9.390000	 0.000234
9.400000	 0.000234
9.410000	 0.000234
9.420000	 0.000233
9.430000	 0.000233
9.440000	 0.000233
9.450000	 0.000233
9.460000	 0.000232
9.470000	 0.000232
9.480000	 0.000232
9.490000	 0.000232
9.500000	 0.000232
9.510000	 0.000231
9.520000	 0.000231
9.530000	 0.000231
9.540000	 0.000231
9.550000	 0.000230
9.560000	 0.000230
9.570000	 0.000230
9.580000	 0.000230
9.590000	 0.000229
9.600000	 0.000229
9.610000	 0.000229
9.620000	 0.000229
9.630000	 0.000229
9.640000	 0.000228
9.650000	 0.000228
9.660000	 0.000228
9.670000	 0.000228
9.680000	 0.000227
9.690000	 0.000227
9.700000	 0.000227
9.710000	 0.000227
9.720000	 0.000226
9.730000	 0.000226
9.740000	 0.000226
9.750000	 0.000226
9.760000	 0.000226
9.770000	 0.000225
9.780000	 0.000225
9.790000	 0.000225
9.800000	 0.000225
9.810000	 0.000224
9.820000	 0.000224
9.830000	 0.000224
9.840000	 0.000224
9.850000	 0.000224
9.860000	 0.000223
9.870000	 0.000223
9.880000	 0.000223
9.890000	 0.000223
9.900000	 0.000222
9.910000	 0.000222
9.920000	 0.000222
9.930000	 0.000222
9.940000	 0.000222
9.950000	 0.000221
9.960000	 0.000221
9.970000	 0.000221
9.980000	 0.000221
9.990000	 0.000220
10.000000	 0.000220
10.010000	 0.000220
10.020000	 0.000220
10.030000	 0.000220
10.040000	 0.000219
10.050000	 0.000219
10.060000	 0.000219
10.070000	 0.000219
10.080000	 0.000218
10.090000	 0.000218
10.100000	 0.000218
10.110000	 0.000218
10.120000	 0.000218
10.130000	 0.000217
10.140000	 0.000217
10.150000	 0.000217
10.160000	 0.000217
10.170000	 0.000216
10.180000	 0.000216
10.190000	 0.000216
10.200000	 0.000216
10.210000	 0.000216
10.220000	 0.000215
10.230000	 0.000215
10.240000	 0.000215
10.250000	 0.000215
10.260000	 0.000215
10.270000	 0.000214
10.280000	 0.000214
10.290000	 0.000214
10.300000	 0.000214
10.310000	 0.000213
10.320000	 0.000213
10.330000	 0.000213
10.340000	 0.000213
10.350000	 0.000213
10.360000	 0.000212
10.370000	 0.000212
10.380000	 0.000212
10.390000	 0.000212
10.400000	 0.000212
10.410000	 0.000211
10.420000	 0.000211
10.430000	 0.000211
10.440000	 0.000211
10.450000	 0.000210
10.460000	 0.000210
10.470000	 0.000210
10.480000	 0.000210
10.490000	 0.000210
10.500000	 0.000209
10.510000	 0.000209
10.520000	 0.000209
10.530000	 0.000209
10.540000	 0.000209
10.550000	 0.000208
10.560000	 0.000208
10.570000	 0.000208
10.580000	 0.000208
10.590000	 0.000208
10.600000	 0.000207
10.610000	 0.000207
10.620000	 0.000207
10.630000	 0.000207
10.640000	 0.000206
10.650000	 0.000206
10.660000	 0.000206
10.670000	 0.000206
10.680000	 0.000206
10.690000	 0.000205
10.700000	 0.000205
10.710000	 0.000205
10.720000	 0.000205
10.730000	 0.000205
10.740000	 0.000204
10.750000	 0.000204
10.760000	 0.000204
10.770000	 0.000204
10.780000	 0.000204
10.790000	 0.000203
10.800000	 0.000203
10.810000	 0.000203
10.820000	 0.000203
10.830000	 0.000203
10.840000	 0.000202
10.850000	 0.000202
10.860000	 0.000202
10.870000	 0.000202
10.880000	 0.000202
10.890000	 0.000201
10.900000	 0.000201
10.910000	 0.000201
10.920000	 0.000201
10.930000	 0.000201
10.940000	 0.000200
10.950000	 0.000200
10.960000	 0.000200
10.970000	 0.000200
10.980000	 0.000200
10.990000	 0.000199
11.000000	 0.000199
11.010000	 0.000199
11.020000	 0.000199
11.030000	 0.000199
11.040000	 0.000198
11.050000	 0.000198
11.060000	 0.000198
11.070000	 0.000198
11.080000	 0.000198
11.090000	 0.000197
11.100000	 0.000197
11.110000	 0.000197
11.120000	 0.000197
11.130000	 0.000197
11.140000	 0.000196
11.150000	 0.000196
11.160000	 0.000196
11.170000	 0.000196
11.180000	 0.000196
11.190000	 0.000195
11.200000	 0.000195
11.210000	 0.000195
11.220000	 0.000195
11.230000	 0.000195
11.240000	 0.000194
11.250000	 0.000194
11.260000	 0.000194
11.270000	 0.000194
11.280000	 0.000194
11.290000	 0.000193
11.300000	 0.000193
11.310000	 0.000193
11.320000	 0.000193
11.330000	 0.000193
11.340000	 0.000192
11.350000	 0.000192
11.360000	 0.000192
11.370000	 0.000192
11.380000	 0.000192
11.390000	 0.000192
11.400000	 0.000191
11.410000	 0.000191
11.420000	 0.000191
11.430000	 0.000191
11.440000	 0.000191
11.450000	 0.000190
11.460000	 0.000190
11.470000	 0.000190
11.480000	 0.000190
11.490000	 0.000190
11.500000	 0.000189
11.510000	 0.000189
11.520000	 0.000189
11.530000	 0.000189
11.540000	 0.000189
11.550000	 0.000188
11.560000	 0.000188
11.570000	 0.000188
11.580000	 0.000188
11.590000	 0.000188
11.600000	 0.000188
11.610000	 0.000187
11.620000	 0.000187
11.630000	 0.000187
11.640000	 0.000187
11.650000	 0.000187
11.660000	 0.000186
11.670000	 0.000186
11.680000	 0.000186
11.690000	 0.000186
11.700000	 0.000186
11.710000	 0.000185
11.720000	 0.000185
11.730000	 0.000185
11.740000	 0.000185
11.750000	 0.000185
11.760000	 0.000185
11.770000	 0.000184
11.780000	 0.000184
11.790000	 0.000184
11.800000	 0.000184
11.810000	 0.000184
11.820000	 0.000183
11.830000	 0.000183
11.840000	 0.000183
11.850000	 0.000183
11.860000	 0.000183
11.870000	 0.000183
11.880000	 0.000182
11.890000	 0.000182
11.900000	 0.000182
11.910000	 0.000182
11.920000	 0.000182
11.930000	 0.000181
11.940000	 0.000181
11.950000	 0.000181
11.960000	 0.000181
11.970000	 0.000181
11.980000	 0.000181
11.990000	 0.000180
12.000000	 0.000180
12.010000	 0.000180
12.020000	 0.000180
12.030000	 0.000180
12.040000	 0.000179
12.050000	 0.000179
12.060000	 0.000179
12.070000	 0.000179
12.080000	 0.000179
12.090000	 0.000179
12.100000	 0.000178
12.110000	 0.000178
12.120000	 0.000178
12.130000	 0.000178
12.140000	 0.000178
12.150000	 0.000177
12.160000	 0.000177
12.170000	 0.000177
12.180000	 0.000177
12.190000	 0.000177
12.200000	 0.000177
12.210000	 0.000176
12.220000	 0.000176
12.230000	 0.000176
12.240000	 0.000176
12.250000	 0.000176
12.260000	 0.000176
12.270000	 0.000175
12.280000	 0.000175
12.290000	 0.000175
12.300000	 0.000175
12.310000	 0.000175
12.320000	 0.000174
12.330000	 0.000174
12.340000	 0.000174
12.350000	 0.000174
12.360000	 0.000174
12.370000	 0.000174
12.380000	 0.000173
12.390000	 0.000173
12.400000	 0.000173
12.410000	 0.000173
12.420000	 0.000173
12.430000	 0.000173
12.440000	 0.000172
12.450000	 0.000172
12.460000	 0.000172
12.470000	 0.000172
12.480000	 0.000172
12.490000	 0.000172
12.500000	 0.000171
12.510000	 0.000171
12.520000	 0.000171
12.530000	 0.000171
12.540000	 0.000171
12.550000	 0.000171
12.560000	 0.000170
12.570000	 0.000170
12.580000	 0.000170
12.590000	 0.000170
12.600000	 0.000170
12.610000	 0.000170
12.620000	 0.000169
12.630000	 0.000169
12.640000	 0.000169
12.650000	 0.000169
12.660000	 0.000169
12.670000	 0.000168
12.680000	 0.000168
12.690000	 0.000168
12.700000	 0.000168
12.710000	 0.000168
12.720000	 0.000168
12.730000	 0.000167
12.740000	 0.000167
12.750000	 0.000167
12.760000	 0.000167
12.770000	 0.000167
12.780000	 0.000167
12.790000	 0.000166
12.800000	 0.000166
12.810000	 0.000166
12.820000	 0.000166
12.830000	 0.000166
12.840000	 0.000166
12.850000	 0.000165
12.860000	 0.000165
12.870000	 0.000165
12.880000	 0.000165
12.890000	 0.000165
12.900000	 0.000165
12.910000	 0.000164
12.920000	 0.000164
12.930000	 0.000164
12.940000	 0.000164
12.950000	 0.000164
12.960000	 0.000164
12.970000	 0.000164
12.980000	 0.000163
12.990000	 0.000163
13.000000	 0.000163
13.010000	 0.000163
13.020000	 0.000163
13.030000	 0.000163
13.040000	 0.000162
13.050000	 0.000162
13.060000	 0.000162
13.070000	 0.000162
13.080000	 0.000162
13.090000	 0.000162
13.100000	 0.000161
13.110000	 0.000161
13.120000	 0.000161
13.130000	 0.000161
13.140000	 0.000161
13.150000	 0.000161
13.160000	 0.000160
13.170000	 0.000160
13.180000	 0.000160
13.190000	 0.000160
13.200000	 0.000160
13.210000	 0.000160
13.220000	 0.000159
13.230000	 0.000159
13.240000	 0.000159
13.250000	 0.000159
13.260000	 0.000159
13.270000	 0.000159
13.280000	 0.000159
13.290000	 0.000158
13.300000	 0.000158
13.310000	 0.000158
13.320000	 0.000158
13.330000	 0.000158
13.340000	 0.000158
13.350000	 0.000157
13.360000	 0.000157
13.370000	 0.000157
13.380000	 0.000157
13.390000	 0.000157
13.400000	 0.000157
13.410000	 0.000156
13.420000	 0.000156
13.430000	 0.000156
13.440000	 0.000156
13.450000	 0.000156
13.460000	 0.000156
13.470000	 0.000156
13.480000	 0.000155
13.490000	 0.000155
13.500000	 0.000155
13.510000	 0.000155
13.520000	 0.000155
13.530000	 0.000155
13.540000	 0.000154
13.550000	 0.000154
13.560000	 0.000154
13.570000	 0.000154
13.580000	 0.000154
13.590000	 0.000154
13.600000	 0.000154
13.610000	 0.000153
13.620000	 0.000153
13.630000	 0.000153
13.640000	 0.000153
13.650000	 0.000153
13.660000	 0.000153
13.670000	 0.000152
13.680000	 0.000152
13.690000	 0.000152
13.700000	 0.000152
13.710000	 0.000152
13.720000	 0.000152
13.730000	 0.000152
13.740000	 0.000151
13.750000	 0.000151
13.760000	 0.000151
13.770000	 0.000151
13.780000	 0.000151
13.790000	 0.000151
13.800000	 0.000150
13.810000	 0.000150
13.820000	 0.000150
13.830000	 0.000150
13.840000	 0.000150
13.850000	 0.000150
13.860000	 0.000150
13.870000	 0.000149
13.880000	 0.000149
13.890000	 0.000149
13.900000	 0.000149
13.910000	 0.000149
13.920000	 0.000149
13.930000	 0.000149
13.940000	 0.000148
13.950000	 0.000148
13.960000	 0.000148
13.970000	 0.000148
13.980000	 0.000148
13.990000	 0.000148
14.000000	 0.000148
14.010000	 0.000147
14.020000	 0.000147
14.030000	 0.000147
14.040000	 0.000147
14.050000	 0.000147
14.060000	 0.000147
14.070000	 0.000146
14.080000	 0.000146
14.090000	 0.000146
14.100000	 0.000146
14.110000	 0.000146
14.120000	 0.000146
14.130000	 0.000146
14.140000	 0.000145
14.150000	 0.000145
14.160000	 0.000145
14.170000	 0.000145
14.180000	 0.000145
14.190000	 0.000145
14.200000	 0.000145
14.210000	 0.000144
14.220000	 0.000144
14.230000	 0.000144
14.240000	 0.000144
14.250000	 0.000144
14.260000	 0.000144
14.270000	 0.000144
14.280000	 0.000143
14.290000	 0.000143
14.300000	 0.000143
14.310000	 0.000143
14.320000	 0.000143
14.330000	 0.000143
14.340000	 0.000143
14.350000	 0.000142
14.360000	 0.000142
14.370000	 0.000142
14.380000	 0.000142
14.390000	 0.000142
14.400000	 0.000142
14.410000	 0.000142
14.420000	 0.000141
14.430000	 0.000141
14.440000	 0.000141
14.450000	 0.000141
14.460000	 0.000141
14.470000	 0.000141
14.480000	 0.000141
14.490000	 0.000140
14.500000	 0.000140
14.510000	 0.000140
14.520000	 0.000140
14.530000	 0.000140
14.540000	 0.000140
14.550000	 0.000140
14.560000	 0.000139
14.570000	 0.000139
14.580000	 0.000139
14.590000	 0.000139
14.600000	 0.000139
14.610000	 0.000139
14.620000	 0.000139
14.630000	 0.000138
14.640000	 0.000138
14.650000	 0.000138
14.660000	 0.000138
14.670000	 0.000138
14.680000	 0.000138
14.690000	 0.000138
14.700000	 0.000138
14.710000	 0.000137
14.720000	 0.000137
14.730000	 0.000137
14.740000	 0.000137
14.750000	 0.000137
14.760000	 0.000137
14.770000	 0.000137
14.780000	 0.000136
14.790000	 0.000136
14.800000	 0.000136
14.810000	 0.000136
14.820000	 0.000136
14.830000	 0.000136
14.840000	 0.000136
14.850000	 0.000135
14.860000	 0.000135
14.870000	 0.000135
14.880000	 0.000135
14.890000	 0.000135
14.900000	 0.000135
14.910000	 0.000135
14.920000	 0.000135
14.930000	 0.000134
14.940000	 0.000134
14.950000	 0.000134
14.960000	 0.000134
14.970000	 0.000134
14.980000	 0.000134
14.990000	 0.000134
15.000000	 0.000133
15.010000	 0.000133
15.020000	 0.000133
15.030000	 0.000133
15.040000	 0.000133
15.050000	 0.000133
15.060000	 0.000133
15.070000	 0.000133
15.080000	 0.000132
15.090000	 0.000132
15.100000	 0.000132
15.110000	 0.000132
15.120000	 0.000132
15.130000	 0.000132
15.140000	 0.000132
15.150000	 0.000131
15.160000	 0.000131
15.170000	 0.000131
15.180000	 0.000131
15.190000	 0.000131
15.200000	 0.000131
15.210000	 0.000131
15.220000	 0.000131
15.230000	 0.000130
15.240000	 0.000130
15.250000	 0.000130
15.260000	 0.000130
15.270000	 0.000130
15.280000	 0.000130
15.290000	 0.000130
15.300000	 0.000130
15.310000	 0.000129
15.320000	 0.000129
15.330000	 0.000129
15.340000	 0.000129
15.350000	 0.000129
15.360000	 0.000129
15.370000	 0.000129
15.380000	 0.000128
15.390000	 0.000128
15.400000	 0.000128
15.410000	 0.000128
15.420000	 0.000128
15.430000	 0.000128
15.440000	 0.000128
15.450000	 0.000128
15.460000	 0.000127