Variables= "X","Y"
zone T= "BLOCK1", I=10, J=1

0.000000	 0.055624
0.010000	 0.026859
0.020000	 0.017446
0.030000	 0.014146
0.040000	 0.011711
0.050000	 0.010127
0.060000	 0.008945
0.070000	 0.008043
0.080000	 0.007326
0.090000	 0.006741
0.100000	 0.006254
0.110000	 0.005842
0.120000	 0.005488
0.130000	 0.005180
0.140000	 0.004909
0.150000	 0.004670
0.160000	 0.004455
0.170000	 0.004263
0.180000	 0.004088
0.190000	 0.003930
0.200000	 0.003785
0.210000	 0.003652
0.220000	 0.003529
0.230000	 0.003416
0.240000	 0.003310
0.250000	 0.003212
0.260000	 0.003121
0.270000	 0.003035
0.280000	 0.002955
0.290000	 0.002879
0.300000	 0.002808
0.310000	 0.002741
0.320000	 0.002677
0.330000	 0.002617
0.340000	 0.002560
0.350000	 0.002505
0.360000	 0.002454
0.370000	 0.002404
0.380000	 0.002357
0.390000	 0.002312
0.400000	 0.002269
0.410000	 0.002228
0.420000	 0.002189
0.430000	 0.002151
0.440000	 0.002114
0.450000	 0.002079
0.460000	 0.002046
0.470000	 0.002013
0.480000	 0.001982
0.490000	 0.001952
0.500000	 0.001923
0.510000	 0.001894
0.520000	 0.001867
0.530000	 0.001841
0.540000	 0.001816
0.550000	 0.001791
0.560000	 0.001767
0.570000	 0.001744
0.580000	 0.001722
0.590000	 0.001700
0.600000	 0.001679
0.610000	 0.001658
0.620000	 0.001638
0.630000	 0.001619
0.640000	 0.001600
0.650000	 0.001581
0.660000	 0.001564
0.670000	 0.001546
0.680000	 0.001529
0.690000	 0.001513
0.700000	 0.001496
0.710000	 0.001481
0.720000	 0.001465
0.730000	 0.001450
0.740000	 0.001436
0.750000	 0.001421
0.760000	 0.001407
0.770000	 0.001394
0.780000	 0.001380
0.790000	 0.001367
0.800000	 0.001355
0.810000	 0.001342
0.820000	 0.001330
0.830000	 0.001318
0.840000	 0.001306
0.850000	 0.001295
0.860000	 0.001283
0.870000	 0.001272
0.880000	 0.001262
0.890000	 0.001251
0.900000	 0.001241
0.910000	 0.001230
0.920000	 0.001220
0.930000	 0.001211
0.940000	 0.001201
0.950000	 0.001192
0.960000	 0.001182
0.970000	 0.001173
0.980000	 0.001164
0.990000	 0.001155
1.000000	 0.001147
1.010000	 0.001138
1.020000	 0.001130
1.030000	 0.001122
1.040000	 0.001114
1.050000	 0.001106
1.060000	 0.001098
1.070000	 0.001090
1.080000	 0.001083
1.090000	 0.001075
1.100000	 0.001068
1.110000	 0.001061
1.120000	 0.001054
1.130000	 0.001047
1.140000	 0.001040
1.150000	 0.001033
1.160000	 0.001027
1.170000	 0.001020
1.180000	 0.001014
1.190000	 0.001007
1.200000	 0.001001
1.210000	 0.000995
1.220000	 0.000989
1.230000	 0.000983
1.240000	 0.000977
1.250000	 0.000971
1.260000	 0.000966
1.270000	 0.000960
1.280000	 0.000954
1.290000	 0.000949
1.300000	 0.000944
1.310000	 0.000938
1.320000	 0.000933
1.330000	 0.000928
1.340000	 0.000923
1.350000	 0.000918
1.360000	 0.000913
1.370000	 0.000908
1.380000	 0.000903
1.390000	 0.000898
1.400000	 0.000894
1.410000	 0.000889
1.420000	 0.000884
1.430000	 0.000880
1.440000	 0.000875
1.450000	 0.000871
1.460000	 0.000867
1.470000	 0.000862
1.480000	 0.000858
1.490000	 0.000854
1.500000	 0.000850
1.510000	 0.000846
1.520000	 0.000842
1.530000	 0.000838
1.540000	 0.000834
1.550000	 0.000830
1.560000	 0.000826
1.570000	 0.000822
1.580000	 0.000818
1.590000	 0.000815
1.600000	 0.000811
1.610000	 0.000808
1.620000	 0.000804
1.630000	 0.000800
1.640000	 0.000797
1.650000	 0.000794
1.660000	 0.000790
1.670000	 0.000787
1.680000	 0.000784
1.690000	 0.000780
1.700000	 0.000777
1.710000	 0.000774
1.720000	 0.000771
1.730000	 0.000768
1.740000	 0.000765
1.750000	 0.000761
1.760000	 0.000758
1.770000	 0.000755
1.780000	 0.000753
1.790000	 0.000750
1.800000	 0.000747
1.810000	 0.000744
1.820000	 0.000741
1.830000	 0.000738
1.840000	 0.000736
1.850000	 0.000733
1.860000	 0.000730
1.870000	 0.000728
1.880000	 0.000725
1.890000	 0.000722
1.900000	 0.000720
1.910000	 0.000717
1.920000	 0.000715
1.930000	 0.000712
1.940000	 0.000710
1.950000	 0.000707
1.960000	 0.000705
1.970000	 0.000703
1.980000	 0.000700
1.990000	 0.000698
2.000000	 0.000696
2.010000	 0.000694
2.020000	 0.000691
2.030000	 0.000689
2.040000	 0.000687
2.050000	 0.000685
2.060000	 0.000683
2.070000	 0.000680
2.080000	 0.000678
2.090000	 0.000676
2.100000	 0.000674
2.110000	 0.000672
2.120000	 0.000670
2.130000	 0.000668
2.140000	 0.000666
2.150000	 0.000664
2.160000	 0.000662
2.170000	 0.000660
2.180000	 0.000659
2.190000	 0.000657
2.200000	 0.000655
2.210000	 0.000653
2.220000	 0.000651
2.230000	 0.000649
2.240000	 0.000648
2.250000	 0.000646
2.260000	 0.000644
2.270000	 0.000642
2.280000	 0.000641
2.290000	 0.000639
2.300000	 0.000637
2.310000	 0.000636
2.320000	 0.000634
2.330000	 0.000632
2.340000	 0.000631
2.350000	 0.000629
2.360000	 0.000628
2.370000	 0.000626
2.380000	 0.000625
2.390000	 0.000623
2.400000	 0.000622
2.410000	 0.000620
2.420000	 0.000619
2.430000	 0.000617
2.440000	 0.000616
2.450000	 0.000614
2.460000	 0.000613
2.470000	 0.000611
2.480000	 0.000610
2.490000	 0.000608
2.500000	 0.000607
2.510000	 0.000606
2.520000	 0.000604
2.530000	 0.000603
2.540000	 0.000602
2.550000	 0.000600
2.560000	 0.000599
2.570000	 0.000598
2.580000	 0.000597
2.590000	 0.000595
2.600000	 0.000594
2.610000	 0.000593
2.620000	 0.000591
2.630000	 0.000590
2.640000	 0.000589
2.650000	 0.000588
2.660000	 0.000587
2.670000	 0.000585
2.680000	 0.000584
2.690000	 0.000583
2.700000	 0.000582
2.710000	 0.000581
2.720000	 0.000580
2.730000	 0.000578
2.740000	 0.000577
2.750000	 0.000576
2.760000	 0.000575
2.770000	 0.000574
2.780000	 0.000573
2.790000	 0.000572
2.800000	 0.000571
2.810000	 0.000570
2.820000	 0.000569
2.830000	 0.000568
2.840000	 0.000567
2.850000	 0.000566
2.860000	 0.000565
2.870000	 0.000564
2.880000	 0.000563
2.890000	 0.000562
2.900000	 0.000561
2.910000	 0.000560
2.920000	 0.000559
2.930000	 0.000558
2.940000	 0.000557
2.950000	 0.000556
2.960000	 0.000555
2.970000	 0.000554
2.980000	 0.000553
2.990000	 0.000552
3.000000	 0.000551
3.010000	 0.000550
3.020000	 0.000549
3.030000	 0.000548
3.040000	 0.000547
3.050000	 0.000546
3.060000	 0.000546
3.070000	 0.000545
3.080000	 0.000544
3.090000	 0.000543
3.100000	 0.000542
3.110000	 0.000541
3.120000	 0.000540
3.130000	 0.000540
3.140000	 0.000539
3.150000	 0.000538
3.160000	 0.000537
3.170000	 0.000536
3.180000	 0.000535
3.190000	 0.000535
3.200000	 0.000534
3.210000	 0.000533
3.220000	 0.000532
3.230000	 0.000531
3.240000	 0.000531
3.250000	 0.000530
3.260000	 0.000529
3.270000	 0.000528
3.280000	 0.000527
3.290000	 0.000527
3.300000	 0.000526
3.310000	 0.000525
3.320000	 0.000524
3.330000	 0.000524
3.340000	 0.000523
3.350000	 0.000522
3.360000	 0.000521
3.370000	 0.000521
3.380000	 0.000520
3.390000	 0.000519
3.400000	 0.000518
3.410000	 0.000518
3.420000	 0.000517
3.430000	 0.000516
3.440000	 0.000516
3.450000	 0.000515
3.460000	 0.000514
3.470000	 0.000513
3.480000	 0.000513
3.490000	 0.000512
3.500000	 0.000511
3.510000	 0.000511
3.520000	 0.000510
3.530000	 0.000509
3.540000	 0.000509
3.550000	 0.000508
3.560000	 0.000507
3.570000	 0.000507
3.580000	 0.000506
3.590000	 0.000505
3.600000	 0.000505
3.610000	 0.000504
3.620000	 0.000503
3.630000	 0.000503
3.640000	 0.000502
3.650000	 0.000501
3.660000	 0.000501
3.670000	 0.000500
3.680000	 0.000499
3.690000	 0.000499
3.700000	 0.000498
3.710000	 0.000497
3.720000	 0.000497
3.730000	 0.000496
3.740000	 0.000496
3.750000	 0.000495
3.760000	 0.000494
3.770000	 0.000494
3.780000	 0.000493
3.790000	 0.000492
3.800000	 0.000492
3.810000	 0.000491
3.820000	 0.000491
3.830000	 0.000490
3.840000	 0.000489
3.850000	 0.000489
3.860000	 0.000488
3.870000	 0.000488
3.880000	 0.000487
3.890000	 0.000486
3.900000	 0.000486
3.910000	 0.000485
3.920000	 0.000485
3.930000	 0.000484
3.940000	 0.000483
3.950000	 0.000483
3.960000	 0.000482
3.970000	 0.000482
3.980000	 0.000481
3.990000	 0.000481
4.000000	 0.000480
4.010000	 0.000479
4.020000	 0.000479
4.030000	 0.000478
4.040000	 0.000478
4.050000	 0.000477
4.060000	 0.000477
4.070000	 0.000476
4.080000	 0.000476
4.090000	 0.000475
4.100000	 0.000474
4.110000	 0.000474
4.120000	 0.000473
4.130000	 0.000473
4.140000	 0.000472
4.150000	 0.000472
4.160000	 0.000471
4.170000	 0.000471
4.180000	 0.000470
4.190000	 0.000470
4.200000	 0.000469
4.210000	 0.000468
4.220000	 0.000468
4.230000	 0.000467
4.240000	 0.000467
4.250000	 0.000466
4.260000	 0.000466
4.270000	 0.000465
4.280000	 0.000465
4.290000	 0.000464
4.300000	 0.000464
4.310000	 0.000463
4.320000	 0.000463
4.330000	 0.000462
4.340000	 0.000462
4.350000	 0.000461
4.360000	 0.000461
4.370000	 0.000460
4.380000	 0.000460
4.390000	 0.000459
4.400000	 0.000458
4.410000	 0.000458
4.420000	 0.000457
4.430000	 0.000457
4.440000	 0.000456
4.450000	 0.000456
4.460000	 0.000455
4.470000	 0.000455
4.480000	 0.000454
4.490000	 0.000454
4.500000	 0.000453
4.510000	 0.000453
4.520000	 0.000452
4.530000	 0.000452
4.540000	 0.000451
4.550000	 0.000451
4.560000	 0.000450
4.570000	 0.000450
4.580000	 0.000449
4.590000	 0.000449
4.600000	 0.000448
4.610000	 0.000448
4.620000	 0.000448
4.630000	 0.000447
4.640000	 0.000447
4.650000	 0.000446
4.660000	 0.000446
4.670000	 0.000445
4.680000	 0.000445
4.690000	 0.000444
4.700000	 0.000444
4.710000	 0.000443
4.720000	 0.000443
4.730000	 0.000442
4.740000	 0.000442
4.750000	 0.000441
4.760000	 0.000441
4.770000	 0.000440
4.780000	 0.000440
4.790000	 0.000439
4.800000	 0.000439
4.810000	 0.000438
4.820000	 0.000438
4.830000	 0.000437
4.840000	 0.000437
4.850000	 0.000437
4.860000	 0.000436
4.870000	 0.000436
4.880000	 0.000435
4.890000	 0.000435
4.900000	 0.000434
4.910000	 0.000434
4.920000	 0.000433
4.930000	 0.000433
4.940000	 0.000432
4.950000	 0.000432
4.960000	 0.000431
4.970000	 0.000431
4.980000	 0.000431
4.990000	 0.000430
5.000000	 0.000430
5.010000	 0.000429
5.020000	 0.000429
5.030000	 0.000428
5.040000	 0.000428
5.050000	 0.000427
5.060000	 0.000427
5.070000	 0.000426
5.080000	 0.000426
5.090000	 0.000426
5.100000	 0.000425
5.110000	 0.000425
5.120000	 0.000424
5.130000	 0.000424
5.140000	 0.000423
5.150000	 0.000423
5.160000	 0.000422
5.170000	 0.000422
5.180000	 0.000422
5.190000	 0.000421
5.200000	 0.000421
5.210000	 0.000420
5.220000	 0.000420
5.230000	 0.000419
5.240000	 0.000419
5.250000	 0.000419
5.260000	 0.000418
5.270000	 0.000418
5.280000	 0.000417
5.290000	 0.000417
5.300000	 0.000416
5.310000	 0.000416
5.320000	 0.000415
5.330000	 0.000415
5.340000	 0.000415
5.350000	 0.000414
5.360000	 0.000414
5.370000	 0.000413
5.380000	 0.000413
5.390000	 0.000412
5.400000	 0.000412
5.410000	 0.000412
5.420000	 0.000411
5.430000	 0.000411
5.440000	 0.000410
5.450000	 0.000410
5.460000	 0.000409
5.470000	 0.000409
5.480000	 0.000409
5.490000	 0.000408
5.500000	 0.000408
5.510000	 0.000407
5.520000	 0.000407
5.530000	 0.000407
5.540000	 0.000406
5.550000	 0.000406
5.560000	 0.000405
5.570000	 0.000405
5.580000	 0.000404
5.590000	 0.000404
5.600000	 0.000404
5.610000	 0.000403
5.620000	 0.000403
5.630000	 0.000402
5.640000	 0.000402
5.650000	 0.000402
5.660000	 0.000401
5.670000	 0.000401
5.680000	 0.000400
5.690000	 0.000400
5.700000	 0.000400
5.710000	 0.000399
5.720000	 0.000399
5.730000	 0.000398
5.740000	 0.000398
5.750000	 0.000397
5.760000	 0.000397
5.770000	 0.000397
5.780000	 0.000396
5.790000	 0.000396
5.800000	 0.000395
5.810000	 0.000395
5.820000	 0.000395
5.830000	 0.000394
5.840000	 0.000394
5.850000	 0.000393
5.860000	 0.000393
5.870000	 0.000393
5.880000	 0.000392
5.890000	 0.000392
5.900000	 0.000391
5.910000	 0.000391
5.920000	 0.000391
5.930000	 0.000390
5.940000	 0.000390
5.950000	 0.000389
5.960000	 0.000389
5.970000	 0.000389
5.980000	 0.000388
5.990000	 0.000388
6.000000	 0.000387
6.010000	 0.000387
6.020000	 0.000387
6.030000	 0.000386
6.040000	 0.000386
6.050000	 0.000385
6.060000	 0.000385
6.070000	 0.000385
6.080000	 0.000384
6.090000	 0.000384
6.100000	 0.000384
6.110000	 0.000383
6.120000	 0.000383
6.130000	 0.000382
6.140000	 0.000382
6.150000	 0.000382
6.160000	 0.000381
6.170000	 0.000381
6.180000	 0.000380
6.190000	 0.000380
6.200000	 0.000380
6.210000	 0.000379
6.220000	 0.000379
6.230000	 0.000379
6.240000	 0.000378
6.250000	 0.000378
6.260000	 0.000377
6.270000	 0.000377
6.280000	 0.000377
6.290000	 0.000376
6.300000	 0.000376
6.310000	 0.000375
6.320000	 0.000375
6.330000	 0.000375
6.340000	 0.000374
6.350000	 0.000374
6.360000	 0.000374
6.370000	 0.000373
6.380000	 0.000373
6.390000	 0.000372
6.400000	 0.000372
6.410000	 0.000372
6.420000	 0.000371
6.430000	 0.000371
6.440000	 0.000371
6.450000	 0.000370
6.460000	 0.000370
6.470000	 0.000369
6.480000	 0.000369
6.490000	 0.000369
6.500000	 0.000368
6.510000	 0.000368
6.520000	 0.000368
6.530000	 0.000367
6.540000	 0.000367
6.550000	 0.000366
6.560000	 0.000366
6.570000	 0.000366
6.580000	 0.000365
6.590000	 0.000365
6.600000	 0.000365
6.610000	 0.000364
6.620000	 0.000364
6.630000	 0.000364
6.640000	 0.000363
6.650000	 0.000363
6.660000	 0.000362
6.670000	 0.000362
6.680000	 0.000362
6.690000	 0.000361
6.700000	 0.000361
6.710000	 0.000361
6.720000	 0.000360
6.730000	 0.000360
6.740000	 0.000360
6.750000	 0.000359
6.760000	 0.000359
6.770000	 0.000358
6.780000	 0.000358
6.790000	 0.000358
6.800000	 0.000357
6.810000	 0.000357
6.820000	 0.000357
6.830000	 0.000356
6.840000	 0.000356
6.850000	 0.000356
6.860000	 0.000355
6.870000	 0.000355
6.880000	 0.000354
6.890000	 0.000354
6.900000	 0.000354
6.910000	 0.000353
6.920000	 0.000353
6.930000	 0.000353
6.940000	 0.000352
6.950000	 0.000352
6.960000	 0.000352
6.970000	 0.000351
6.980000	 0.000351
6.990000	 0.000351
7.000000	 0.000350
7.010000	 0.000350
7.020000	 0.000350
7.030000	 0.000349
7.040000	 0.000349
7.050000	 0.000348
7.060000	 0.000348
7.070000	 0.000348
7.080000	 0.000347
7.090000	 0.000347
7.100000	 0.000347
7.110000	 0.000346
7.120000	 0.000346
7.130000	 0.000346
7.140000	 0.000345
7.150000	 0.000345
7.160000	 0.000345
7.170000	 0.000344
7.180000	 0.000344
7.190000	 0.000344
7.200000	 0.000343
7.210000	 0.000343
7.220000	 0.000343
7.230000	 0.000342
7.240000	 0.000342
7.250000	 0.000342
7.260000	 0.000341
7.270000	 0.000341
7.280000	 0.000341
7.290000	 0.000340
7.300000	 0.000340
7.310000	 0.000340
7.320000	 0.000339
7.330000	 0.000339
7.340000	 0.000339
7.350000	 0.000338
7.360000	 0.000338
7.370000	 0.000337
7.380000	 0.000337
7.390000	 0.000337
7.400000	 0.000336
7.410000	 0.000336
7.420000	 0.000336
7.430000	 0.000335
7.440000	 0.000335
7.450000	 0.000335
7.460000	 0.000334
7.470000	 0.000334
7.480000	 0.000334
7.490000	 0.000333
7.500000	 0.000333
7.510000	 0.000333
7.520000	 0.000332
7.530000	 0.000332
7.540000	 0.000332
7.550000	 0.000331
7.560000	 0.000331
7.570000	 0.000331
7.580000	 0.000330
7.590000	 0.000330
7.600000	 0.000330
7.610000	 0.000329
7.620000	 0.000329
7.630000	 0.000329
7.640000	 0.000329
7.650000	 0.000328
7.660000	 0.000328
7.670000	 0.000328
7.680000	 0.000327
7.690000	 0.000327
7.700000	 0.000327
7.710000	 0.000326
7.720000	 0.000326
7.730000	 0.000326
7.740000	 0.000325
7.750000	 0.000325
7.760000	 0.000325
7.770000	 0.000324
7.780000	 0.000324
7.790000	 0.000324
7.800000	 0.000323
7.810000	 0.000323
7.820000	 0.000323
7.830000	 0.000322
7.840000	 0.000322
7.850000	 0.000322
7.860000	 0.000321
7.870000	 0.000321
7.880000	 0.000321
7.890000	 0.000320
7.900000	 0.000320
7.910000	 0.000320
7.920000	 0.000319
7.930000	 0.000319
7.940000	 0.000319
7.950000	 0.000318
7.960000	 0.000318
7.970000	 0.000318
7.980000	 0.000318
7.990000	 0.000317
8.000000	 0.000317
8.010000	 0.000317
8.020000	 0.000316
8.030000	 0.000316
8.040000	 0.000316
8.050000	 0.000315
8.060000	 0.000315
8.070000	 0.000315
8.080000	 0.000314
8.090000	 0.000314
8.100000	 0.000314
8.110000	 0.000313
8.120000	 0.000313
8.130000	 0.000313
8.140000	 0.000313
8.150000	 0.000312
8.160000	 0.000312
8.170000	 0.000312
8.180000	 0.000311
8.190000	 0.000311
8.200000	 0.000311
8.210000	 0.000310
8.220000	 0.000310
8.230000	 0.000310
8.240000	 0.000309
8.250000	 0.000309
8.260000	 0.000309
8.270000	 0.000308
8.280000	 0.000308
8.290000	 0.000308
8.300000	 0.000308
8.310000	 0.000307
8.320000	 0.000307
8.330000	 0.000307
8.340000	 0.000306
8.350000	 0.000306
8.360000	 0.000306
8.370000	 0.000305
8.380000	 0.000305
8.390000	 0.000305
8.400000	 0.000305
8.410000	 0.000304
8.420000	 0.000304
8.430000	 0.000304
8.440000	 0.000303
8.450000	 0.000303
8.460000	 0.000303
8.470000	 0.000302
8.480000	 0.000302
8.490000	 0.000302
8.500000	 0.000302
8.510000	 0.000301
8.520000	 0.000301
8.530000	 0.000301
8.540000	 0.000300
8.550000	 0.000300
8.560000	 0.000300
8.570000	 0.000299
8.580000	 0.000299
8.590000	 0.000299
8.600000	 0.000299
8.610000	 0.000298
8.620000	 0.000298
8.630000	 0.000298
8.640000	 0.000297
8.650000	 0.000297
8.660000	 0.000297
8.670000	 0.000296
8.680000	 0.000296
8.690000	 0.000296
8.700000	 0.000296
8.710000	 0.000295
8.720000	 0.000295
8.730000	 0.000295
8.740000	 0.000294
8.750000	 0.000294
8.760000	 0.000294
8.770000	 0.000294
8.780000	 0.000293
8.790000	 0.000293
8.800000	 0.000293
8.810000	 0.000292
8.820000	 0.000292
8.830000	 0.000292
8.840000	 0.000291
8.850000	 0.000291
8.860000	 0.000291
8.870000	 0.000291
8.880000	 0.000290
8.890000	 0.000290
8.900000	 0.000290
8.910000	 0.000289
8.920000	 0.000289
8.930000	 0.000289
8.940000	 0.000289
8.950000	 0.000288
8.960000	 0.000288
8.970000	 0.000288
8.980000	 0.000287
8.990000	 0.000287
9.000000	 0.000287
9.010000	 0.000287
9.020000	 0.000286
9.030000	 0.000286
9.040000	 0.000286
9.050000	 0.000285
9.060000	 0.000285
9.070000	 0.000285
9.080000	 0.000285
9.090000	 0.000284
9.100000	 0.000284
9.110000	 0.000284
9.120000	 0.000283
9.130000	 0.000283
9.140000	 0.000283
9.150000	 0.000283
9.160000	 0.000282
9.170000	 0.000282
9.180000	 0.000282
9.190000	 0.000281
9.200000	 0.000281
9.210000	 0.000281
9.220000	 0.000281
9.230000	 0.000280
9.240000	 0.000280
9.250000	 0.000280
9.260000	 0.000280
9.270000	 0.000279
9.280000	 0.000279
9.290000	 0.000279
9.300000	 0.000278
9.310000	 0.000278
9.320000	 0.000278
9.330000	 0.000278
9.340000	 0.000277
9.350000	 0.000277
9.360000	 0.000277
9.370000	 0.000277
9.380000	 0.000276
9.390000	 0.000276
9.400000	 0.000276
9.410000	 0.000275
9.420000	 0.000275
9.430000	 0.000275
9.440000	 0.000275
9.450000	 0.000274
9.460000	 0.000274
9.470000	 0.000274
9.480000	 0.000273
9.490000	 0.000273
9.500000	 0.000273
9.510000	 0.000273
9.520000	 0.000272
9.530000	 0.000272
9.540000	 0.000272
9.550000	 0.000272
9.560000	 0.000271
9.570000	 0.000271
9.580000	 0.000271
9.590000	 0.000271
9.600000	 0.000270
9.610000	 0.000270
9.620000	 0.000270
9.630000	 0.000269
9.640000	 0.000269
9.650000	 0.000269
9.660000	 0.000269
9.670000	 0.000268
9.680000	 0.000268
9.690000	 0.000268
9.700000	 0.000268
9.710000	 0.000267
9.720000	 0.000267
9.730000	 0.000267
9.740000	 0.000267
9.750000	 0.000266
9.760000	 0.000266
9.770000	 0.000266
9.780000	 0.000265
9.790000	 0.000265
9.800000	 0.000265
9.810000	 0.000265
9.820000	 0.000264
9.830000	 0.000264
9.840000	 0.000264
9.850000	 0.000264
9.860000	 0.000263
9.870000	 0.000263
9.880000	 0.000263
9.890000	 0.000263
9.900000	 0.000262
9.910000	 0.000262
9.920000	 0.000262
9.930000	 0.000262
9.940000	 0.000261
9.950000	 0.000261
9.960000	 0.000261
9.970000	 0.000260
9.980000	 0.000260
9.990000	 0.000260
10.000000	 0.000260
10.010000	 0.000259
10.020000	 0.000259
10.030000	 0.000259
10.040000	 0.000259
10.050000	 0.000258
10.060000	 0.000258
10.070000	 0.000258
10.080000	 0.000258
10.090000	 0.000257
10.100000	 0.000257
10.110000	 0.000257
10.120000	 0.000257
10.130000	 0.000256
10.140000	 0.000256
10.150000	 0.000256
10.160000	 0.000256
10.170000	 0.000255
10.180000	 0.000255
10.190000	 0.000255
10.200000	 0.000255
10.210000	 0.000254
10.220000	 0.000254
10.230000	 0.000254
10.240000	 0.000254
10.250000	 0.000253
10.260000	 0.000253
10.270000	 0.000253
10.280000	 0.000253
10.290000	 0.000252
10.300000	 0.000252
10.310000	 0.000252
10.320000	 0.000252
10.330000	 0.000251
10.340000	 0.000251
10.350000	 0.000251
10.360000	 0.000251
10.370000	 0.000250
10.380000	 0.000250
10.390000	 0.000250
10.400000	 0.000250
10.410000	 0.000249
10.420000	 0.000249
10.430000	 0.000249
10.440000	 0.000249
10.450000	 0.000248
10.460000	 0.000248
10.470000	 0.000248
10.480000	 0.000248
10.490000	 0.000247
10.500000	 0.000247
10.510000	 0.000247
10.520000	 0.000247
10.530000	 0.000246
10.540000	 0.000246
10.550000	 0.000246
10.560000	 0.000246
10.570000	 0.000245
10.580000	 0.000245
10.590000	 0.000245
10.600000	 0.000245
10.610000	 0.000244
10.620000	 0.000244
10.630000	 0.000244
10.640000	 0.000244
10.650000	 0.000243
10.660000	 0.000243
10.670000	 0.000243
10.680000	 0.000243
10.690000	 0.000243
10.700000	 0.000242
10.710000	 0.000242
10.720000	 0.000242
10.730000	 0.000242
10.740000	 0.000241
10.750000	 0.000241
10.760000	 0.000241
10.770000	 0.000241
10.780000	 0.000240
10.790000	 0.000240
10.800000	 0.000240
10.810000	 0.000240
10.820000	 0.000239
10.830000	 0.000239
10.840000	 0.000239
10.850000	 0.000239
10.860000	 0.000238
10.870000	 0.000238
10.880000	 0.000238
10.890000	 0.000238
10.900000	 0.000238
10.910000	 0.000237
10.920000	 0.000237
10.930000	 0.000237
10.940000	 0.000237
10.950000	 0.000236
10.960000	 0.000236
10.970000	 0.000236
10.980000	 0.000236
10.990000	 0.000235
11.000000	 0.000235
11.010000	 0.000235
11.020000	 0.000235
11.030000	 0.000234
11.040000	 0.000234
11.050000	 0.000234
11.060000	 0.000234
11.070000	 0.000234
11.080000	 0.000233
11.090000	 0.000233
11.100000	 0.000233
11.110000	 0.000233
11.120000	 0.000232
11.130000	 0.000232
11.140000	 0.000232
11.150000	 0.000232
11.160000	 0.000231
11.170000	 0.000231
11.180000	 0.000231
11.190000	 0.000231
11.200000	 0.000231
11.210000	 0.000230
11.220000	 0.000230
11.230000	 0.000230
11.240000	 0.000230
11.250000	 0.000229
11.260000	 0.000229
11.270000	 0.000229
11.280000	 0.000229
11.290000	 0.000228
11.300000	 0.000228
11.310000	 0.000228
11.320000	 0.000228
11.330000	 0.000228
11.340000	 0.000227
11.350000	 0.000227
11.360000	 0.000227
11.370000	 0.000227
11.380000	 0.000226
11.390000	 0.000226
11.400000	 0.000226
11.410000	 0.000226
11.420000	 0.000226
11.430000	 0.000225
11.440000	 0.000225
11.450000	 0.000225
11.460000	 0.000225
11.470000	 0.000224
11.480000	 0.000224
11.490000	 0.000224
11.500000	 0.000224
11.510000	 0.000224
11.520000	 0.000223
11.530000	 0.000223
11.540000	 0.000223
11.550000	 0.000223
11.560000	 0.000222
11.570000	 0.000222
11.580000	 0.000222
11.590000	 0.000222
11.600000	 0.000222
11.610000	 0.000221
11.620000	 0.000221
11.630000	 0.000221
11.640000	 0.000221
11.650000	 0.000220
11.660000	 0.000220
11.670000	 0.000220
11.680000	 0.000220
11.690000	 0.000220
11.700000	 0.000219
11.710000	 0.000219
11.720000	 0.000219
11.730000	 0.000219
11.740000	 0.000219
11.750000	 0.000218
11.760000	 0.000218
11.770000	 0.000218
11.780000	 0.000218
11.790000	 0.000217
11.800000	 0.000217
11.810000	 0.000217
11.820000	 0.000217
11.830000	 0.000217
11.840000	 0.000216
11.850000	 0.000216
11.860000	 0.000216
11.870000	 0.000216
11.880000	 0.000216
11.890000	 0.000215
11.900000	 0.000215
11.910000	 0.000215
11.920000	 0.000215
11.930000	 0.000214
11.940000	 0.000214
11.950000	 0.000214
11.960000	 0.000214
11.970000	 0.000214
11.980000	 0.000213
11.990000	 0.000213
12.000000	 0.000213
12.010000	 0.000213
12.020000	 0.000213
12.030000	 0.000212
12.040000	 0.000212
12.050000	 0.000212
12.060000	 0.000212
12.070000	 0.000211
12.080000	 0.000211
12.090000	 0.000211
12.100000	 0.000211
12.110000	 0.000211
12.120000	 0.000210
12.130000	 0.000210
12.140000	 0.000210
12.150000	 0.000210
12.160000	 0.000210
12.170000	 0.000209
12.180000	 0.000209
12.190000	 0.000209
12.200000	 0.000209
12.210000	 0.000209
12.220000	 0.000208
12.230000	 0.000208
12.240000	 0.000208
12.250000	 0.000208
12.260000	 0.000208
12.270000	 0.000207
12.280000	 0.000207
12.290000	 0.000207
12.300000	 0.000207
12.310000	 0.000206
12.320000	 0.000206
12.330000	 0.000206
12.340000	 0.000206
12.350000	 0.000206
12.360000	 0.000205
12.370000	 0.000205
12.380000	 0.000205
12.390000	 0.000205
12.400000	 0.000205
12.410000	 0.000204
12.420000	 0.000204
12.430000	 0.000204
12.440000	 0.000204
12.450000	 0.000204
12.460000	 0.000203
12.470000	 0.000203
12.480000	 0.000203
12.490000	 0.000203
12.500000	 0.000203
12.510000	 0.000202
12.520000	 0.000202
12.530000	 0.000202
12.540000	 0.000202
12.550000	 0.000202
12.560000	 0.000201
12.570000	 0.000201
12.580000	 0.000201
12.590000	 0.000201
12.600000	 0.000201
12.610000	 0.000200
12.620000	 0.000200
12.630000	 0.000200
12.640000	 0.000200
12.650000	 0.000200
12.660000	 0.000199
12.670000	 0.000199
12.680000	 0.000199
12.690000	 0.000199
12.700000	 0.000199
12.710000	 0.000198
12.720000	 0.000198
12.730000	 0.000198
12.740000	 0.000198
12.750000	 0.000198
12.760000	 0.000197
12.770000	 0.000197
12.780000	 0.000197
12.790000	 0.000197
12.800000	 0.000197
12.810000	 0.000197
12.820000	 0.000196
12.830000	 0.000196
12.840000	 0.000196
12.850000	 0.000196
12.860000	 0.000196
12.870000	 0.000195
12.880000	 0.000195
12.890000	 0.000195
12.900000	 0.000195
12.910000	 0.000195
12.920000	 0.000194
12.930000	 0.000194
12.940000	 0.000194
12.950000	 0.000194
12.960000	 0.000194
12.970000	 0.000193
12.980000	 0.000193
12.990000	 0.000193
13.000000	 0.000193
13.010000	 0.000193
13.020000	 0.000192
13.030000	 0.000192
13.040000	 0.000192
13.050000	 0.000192
13.060000	 0.000192
13.070000	 0.000191
13.080000	 0.000191
13.090000	 0.000191
13.100000	 0.000191
13.110000	 0.000191
13.120000	 0.000191
13.130000	 0.000190
13.140000	 0.000190
13.150000	 0.000190
13.160000	 0.000190
13.170000	 0.000190
13.180000	 0.000189
13.190000	 0.000189
13.200000	 0.000189
13.210000	 0.000189
13.220000	 0.000189
13.230000	 0.000188
13.240000	 0.000188
13.250000	 0.000188
13.260000	 0.000188
13.270000	 0.000188
13.280000	 0.000188
13.290000	 0.000187
13.300000	 0.000187
13.310000	 0.000187
13.320000	 0.000187
13.330000	 0.000187
13.340000	 0.000186
13.350000	 0.000186
13.360000	 0.000186
13.370000	 0.000186
13.380000	 0.000186
13.390000	 0.000186
13.400000	 0.000185
13.410000	 0.000185
13.420000	 0.000185
13.430000	 0.000185
13.440000	 0.000185
13.450000	 0.000184
13.460000	 0.000184
13.470000	 0.000184
13.480000	 0.000184
13.490000	 0.000184
13.500000	 0.000183
13.510000	 0.000183
13.520000	 0.000183
13.530000	 0.000183
13.540000	 0.000183
13.550000	 0.000183
13.560000	 0.000182
13.570000	 0.000182
13.580000	 0.000182
13.590000	 0.000182
13.600000	 0.000182
13.610000	 0.000182
13.620000	 0.000181
13.630000	 0.000181
13.640000	 0.000181
13.650000	 0.000181
13.660000	 0.000181
13.670000	 0.000180
13.680000	 0.000180
13.690000	 0.000180
13.700000	 0.000180
13.710000	 0.000180
13.720000	 0.000180
13.730000	 0.000179
13.740000	 0.000179
13.750000	 0.000179
13.760000	 0.000179
13.770000	 0.000179
13.780000	 0.000178
13.790000	 0.000178
13.800000	 0.000178
13.810000	 0.000178
13.820000	 0.000178
13.830000	 0.000178
13.840000	 0.000177
13.850000	 0.000177
13.860000	 0.000177
13.870000	 0.000177
13.880000	 0.000177
13.890000	 0.000177
13.900000	 0.000176
13.910000	 0.000176
13.920000	 0.000176
13.930000	 0.000176
13.940000	 0.000176
13.950000	 0.000175
13.960000	 0.000175
13.970000	 0.000175
13.980000	 0.000175
13.990000	 0.000175
14.000000	 0.000175
14.010000	 0.000174
14.020000	 0.000174
14.030000	 0.000174
14.040000	 0.000174
14.050000	 0.000174
14.060000	 0.000174
14.070000	 0.000173
14.080000	 0.000173
14.090000	 0.000173
14.100000	 0.000173
14.110000	 0.000173
14.120000	 0.000173
14.130000	 0.000172
14.140000	 0.000172
14.150000	 0.000172
14.160000	 0.000172
14.170000	 0.000172
14.180000	 0.000172
14.190000	 0.000171
14.200000	 0.000171
14.210000	 0.000171
14.220000	 0.000171
14.230000	 0.000171
14.240000	 0.000171
14.250000	 0.000170
14.260000	 0.000170
14.270000	 0.000170
14.280000	 0.000170
14.290000	 0.000170
14.300000	 0.000169
14.310000	 0.000169
14.320000	 0.000169
14.330000	 0.000169
14.340000	 0.000169
14.350000	 0.000169
14.360000	 0.000168
14.370000	 0.000168
14.380000	 0.000168
14.390000	 0.000168
14.400000	 0.000168
14.410000	 0.000168
14.420000	 0.000167
14.430000	 0.000167
14.440000	 0.000167
14.450000	 0.000167
14.460000	 0.000167
14.470000	 0.000167
14.480000	 0.000166
14.490000	 0.000166
14.500000	 0.000166
14.510000	 0.000166
14.520000	 0.000166
14.530000	 0.000166
14.540000	 0.000166
14.550000	 0.000165
14.560000	 0.000165
14.570000	 0.000165
14.580000	 0.000165
14.590000	 0.000165
14.600000	 0.000165
14.610000	 0.000164
14.620000	 0.000164
14.630000	 0.000164
14.640000	 0.000164
14.650000	 0.000164
14.660000	 0.000164
14.670000	 0.000163
14.680000	 0.000163
14.690000	 0.000163
14.700000	 0.000163
14.710000	 0.000163
14.720000	 0.000163
14.730000	 0.000162
14.740000	 0.000162
14.750000	 0.000162
14.760000	 0.000162
14.770000	 0.000162
14.780000	 0.000162
14.790000	 0.000161
14.800000	 0.000161
14.810000	 0.000161
14.820000	 0.000161
14.830000	 0.000161
14.840000	 0.000161
14.850000	 0.000160
14.860000	 0.000160
14.870000	 0.000160
14.880000	 0.000160
14.890000	 0.000160
14.900000	 0.000160
14.910000	 0.000160
14.920000	 0.000159
14.930000	 0.000159
14.940000	 0.000159
14.950000	 0.000159
14.960000	 0.000159
14.970000	 0.000159
14.980000	 0.000158
14.990000	 0.000158
15.000000	 0.000158
15.010000	 0.000158
15.020000	 0.000158
15.030000	 0.000158
15.040000	 0.000157
15.050000	 0.000157
15.060000	 0.000157
15.070000	 0.000157
15.080000	 0.000157
15.090000	 0.000157
15.100000	 0.000157
15.110000	 0.000156
15.120000	 0.000156
15.130000	 0.000156
15.140000	 0.000156
15.150000	 0.000156
15.160000	 0.000156
15.170000	 0.000155
15.180000	 0.000155
15.190000	 0.000155
15.200000	 0.000155
15.210000	 0.000155
15.220000	 0.000155
15.230000	 0.000155
15.240000	 0.000154
15.250000	 0.000154
15.260000	 0.000154
15.270000	 0.000154
15.280000	 0.000154
15.290000	 0.000154
15.300000	 0.000153
15.310000	 0.000153
15.320000	 0.000153
15.330000	 0.000153
15.340000	 0.000153
15.350000	 0.000153
15.360000	 0.000153
15.370000	 0.000152
15.380000	 0.000152
15.390000	 0.000152
15.400000	 0.000152
15.410000	 0.000152
15.420000	 0.000152
15.430000	 0.000152
15.440000	 0.000151
15.450000	 0.000151
15.460000	 0.000151