Variables= "X","Y"
zone T= "BLOCK1", I=10, J=1

0.000000	 0.050000
0.005000	 0.025000
0.010000	 0.017678
0.015000	 0.013975
0.020000	 0.011693
0.025000	 0.010126
0.030000	 0.008976
0.035000	 0.008091
0.040000	 0.007386
0.045000	 0.006809
0.050000	 0.006328
0.055000	 0.005919
0.060000	 0.005567
0.065000	 0.005261
0.070000	 0.004991
0.075000	 0.004751
0.080000	 0.004537
0.085000	 0.004343
0.090000	 0.004169
0.095000	 0.004009
0.100000	 0.003863
0.105000	 0.003729
0.110000	 0.003606
0.115000	 0.003491
0.120000	 0.003385
0.125000	 0.003286
0.130000	 0.003193
0.135000	 0.003106
0.140000	 0.003025
0.145000	 0.002948
0.150000	 0.002876
0.155000	 0.002808
0.160000	 0.002743
0.165000	 0.002682
0.170000	 0.002624
0.175000	 0.002569
0.180000	 0.002516
0.185000	 0.002466
0.190000	 0.002418
0.195000	 0.002372
0.200000	 0.002329
0.205000	 0.002287
0.210000	 0.002246
0.215000	 0.002208
0.220000	 0.002171
0.225000	 0.002135
0.230000	 0.002101
0.235000	 0.002068
0.240000	 0.002036
0.245000	 0.002005
0.250000	 0.001975
0.255000	 0.001947
0.260000	 0.001919
0.265000	 0.001892
0.270000	 0.001866
0.275000	 0.001841
0.280000	 0.001816
0.285000	 0.001793
0.290000	 0.001770
0.295000	 0.001748
0.300000	 0.001726
0.305000	 0.001705
0.310000	 0.001685
0.315000	 0.001665
0.320000	 0.001645
0.325000	 0.001627
0.330000	 0.001608
0.335000	 0.001590
0.340000	 0.001573
0.345000	 0.001556
0.350000	 0.001540
0.355000	 0.001523
0.360000	 0.001508
0.365000	 0.001492
0.370000	 0.001477
0.375000	 0.001463
0.380000	 0.001448
0.385000	 0.001434
0.390000	 0.001421
0.395000	 0.001407
0.400000	 0.001394
0.405000	 0.001381
0.410000	 0.001369
0.415000	 0.001357
0.420000	 0.001345
0.425000	 0.001333
0.430000	 0.001321
0.435000	 0.001310
0.440000	 0.001299
0.445000	 0.001288
0.450000	 0.001277
0.455000	 0.001267
0.460000	 0.001257
0.465000	 0.001247
0.470000	 0.001237
0.475000	 0.001227
0.480000	 0.001217
0.485000	 0.001208
0.490000	 0.001199
0.495000	 0.001190
0.500000	 0.001181
0.505000	 0.001172
0.510000	 0.001164
0.515000	 0.001155
0.520000	 0.001147
0.525000	 0.001139
0.530000	 0.001131
0.535000	 0.001123
0.540000	 0.001115
0.545000	 0.001108
0.550000	 0.001100
0.555000	 0.001093
0.560000	 0.001085
0.565000	 0.001078
0.570000	 0.001071
0.575000	 0.001064
0.580000	 0.001057
0.585000	 0.001051
0.590000	 0.001044
0.595000	 0.001037
0.600000	 0.001031
0.605000	 0.001025
0.610000	 0.001018
0.615000	 0.001012
0.620000	 0.001006
0.625000	 0.001000
0.630000	 0.000994
0.635000	 0.000988
0.640000	 0.000983
0.645000	 0.000977
0.650000	 0.000971
0.655000	 0.000966
0.660000	 0.000960
0.665000	 0.000955
0.670000	 0.000950
0.675000	 0.000944
0.680000	 0.000939
0.685000	 0.000934
0.690000	 0.000929
0.695000	 0.000924
0.700000	 0.000919
0.705000	 0.000914
0.710000	 0.000909
0.715000	 0.000905
0.720000	 0.000900
0.725000	 0.000895
0.730000	 0.000891
0.735000	 0.000886
0.740000	 0.000882
0.745000	 0.000877
0.750000	 0.000873
0.755000	 0.000869
0.760000	 0.000864
0.765000	 0.000860
0.770000	 0.000856
0.775000	 0.000852
0.780000	 0.000848
0.785000	 0.000844
0.790000	 0.000840
0.795000	 0.000836
0.800000	 0.000832
0.805000	 0.000828
0.810000	 0.000824
0.815000	 0.000820
0.820000	 0.000817
0.825000	 0.000813
0.830000	 0.000809
0.835000	 0.000806
0.840000	 0.000802
0.845000	 0.000799
0.850000	 0.000795
0.855000	 0.000792
0.860000	 0.000788
0.865000	 0.000785
0.870000	 0.000781
0.875000	 0.000778
0.880000	 0.000775
0.885000	 0.000771
0.890000	 0.000768
0.895000	 0.000765
0.900000	 0.000762
0.905000	 0.000759
0.910000	 0.000756
0.915000	 0.000753
0.920000	 0.000749
0.925000	 0.000746
0.930000	 0.000743
0.935000	 0.000740
0.940000	 0.000738
0.945000	 0.000735
0.950000	 0.000732
0.955000	 0.000729
0.960000	 0.000726
0.965000	 0.000723
0.970000	 0.000720
0.975000	 0.000718
0.980000	 0.000715
0.985000	 0.000712
0.990000	 0.000710
0.995000	 0.000707
1.000000	 0.000704
1.005000	 0.000702
1.010000	 0.000699
1.015000	 0.000696
1.020000	 0.000694
1.025000	 0.000691
1.030000	 0.000689
1.035000	 0.000686
1.040000	 0.000684
1.045000	 0.000681
1.050000	 0.000679
1.055000	 0.000677
1.060000	 0.000674
1.065000	 0.000672
1.070000	 0.000669
1.075000	 0.000667
1.080000	 0.000665
1.085000	 0.000663
1.090000	 0.000660
1.095000	 0.000658
1.100000	 0.000656
1.105000	 0.000654
1.110000	 0.000651
1.115000	 0.000649
1.120000	 0.000647
1.125000	 0.000645
1.130000	 0.000643
1.135000	 0.000641
1.140000	 0.000639
1.145000	 0.000636
1.150000	 0.000634
1.155000	 0.000632
1.160000	 0.000630
1.165000	 0.000628
1.170000	 0.000626
1.175000	 0.000624
1.180000	 0.000622
1.185000	 0.000620
1.190000	 0.000618
1.195000	 0.000616
1.200000	 0.000614
1.205000	 0.000613
1.210000	 0.000611
1.215000	 0.000609
1.220000	 0.000607
1.225000	 0.000605
1.230000	 0.000603
1.235000	 0.000601
1.240000	 0.000600
1.245000	 0.000598
1.250000	 0.000596
1.255000	 0.000594
1.260000	 0.000592
1.265000	 0.000591
1.270000	 0.000589
1.275000	 0.000587
1.280000	 0.000586
1.285000	 0.000584
1.290000	 0.000582
1.295000	 0.000580
1.300000	 0.000579
1.305000	 0.000577
1.310000	 0.000575
1.315000	 0.000574
1.320000	 0.000572
1.325000	 0.000571
1.330000	 0.000569
1.335000	 0.000567
1.340000	 0.000566
1.345000	 0.000564
1.350000	 0.000563
1.355000	 0.000561
1.360000	 0.000560
1.365000	 0.000558
1.370000	 0.000557
1.375000	 0.000555
1.380000	 0.000553
1.385000	 0.000552
1.390000	 0.000551
1.395000	 0.000549
1.400000	 0.000548
1.405000	 0.000546
1.410000	 0.000545
1.415000	 0.000543
1.420000	 0.000542
1.425000	 0.000540
1.430000	 0.000539
1.435000	 0.000538
1.440000	 0.000536
1.445000	 0.000535
1.450000	 0.000533
1.455000	 0.000532
1.460000	 0.000531
1.465000	 0.000529
1.470000	 0.000528
1.475000	 0.000527
1.480000	 0.000525
1.485000	 0.000524
1.490000	 0.000523
1.495000	 0.000521
1.500000	 0.000520
1.505000	 0.000519
1.510000	 0.000517
1.515000	 0.000516
1.520000	 0.000515
1.525000	 0.000514
1.530000	 0.000512
1.535000	 0.000511
1.540000	 0.000510
1.545000	 0.000509
1.550000	 0.000507
1.555000	 0.000506
1.560000	 0.000505
1.565000	 0.000504
1.570000	 0.000503
1.575000	 0.000501
1.580000	 0.000500
1.585000	 0.000499
1.590000	 0.000498
1.595000	 0.000497
1.600000	 0.000496
1.605000	 0.000494
1.610000	 0.000493
1.615000	 0.000492
1.620000	 0.000491
1.625000	 0.000490
1.630000	 0.000489
1.635000	 0.000488
1.640000	 0.000486
1.645000	 0.000485
1.650000	 0.000484
1.655000	 0.000483
1.660000	 0.000482
1.665000	 0.000481
1.670000	 0.000480
1.675000	 0.000479
1.680000	 0.000478
1.685000	 0.000477
1.690000	 0.000476
1.695000	 0.000475
1.700000	 0.000474
1.705000	 0.000472
1.710000	 0.000471
1.715000	 0.000470
1.720000	 0.000469
1.725000	 0.000468
1.730000	 0.000467
1.735000	 0.000466
1.740000	 0.000465
1.745000	 0.000464
1.750000	 0.000463
1.755000	 0.000462
1.760000	 0.000461
1.765000	 0.000460
1.770000	 0.000459
1.775000	 0.000458
1.780000	 0.000458
1.785000	 0.000457
1.790000	 0.000456
1.795000	 0.000455
1.800000	 0.000454
1.805000	 0.000453
1.810000	 0.000452
1.815000	 0.000451
1.820000	 0.000450
1.825000	 0.000449
1.830000	 0.000448
1.835000	 0.000447
1.840000	 0.000446
1.845000	 0.000445
1.850000	 0.000445
1.855000	 0.000444
1.860000	 0.000443
1.865000	 0.000442
1.870000	 0.000441
1.875000	 0.000440
1.880000	 0.000439
1.885000	 0.000438
1.890000	 0.000437
1.895000	 0.000437
1.900000	 0.000436
1.905000	 0.000435
1.910000	 0.000434
1.915000	 0.000433
1.920000	 0.000432
1.925000	 0.000431
1.930000	 0.000431
1.935000	 0.000430
1.940000	 0.000429
1.945000	 0.000428
1.950000	 0.000427
1.955000	 0.000427
1.960000	 0.000426
1.965000	 0.000425
1.970000	 0.000424
1.975000	 0.000423
1.980000	 0.000422
1.985000	 0.000422
1.990000	 0.000421
1.995000	 0.000420
2.000000	 0.000419
2.005000	 0.000419
2.010000	 0.000418
2.015000	 0.000417
2.020000	 0.000416
2.025000	 0.000415
2.030000	 0.000415
2.035000	 0.000414
2.040000	 0.000413
2.045000	 0.000412
2.050000	 0.000412
2.055000	 0.000411
2.060000	 0.000410
2.065000	 0.000409
2.070000	 0.000409
2.075000	 0.000408
2.080000	 0.000407
2.085000	 0.000406
2.090000	 0.000406
2.095000	 0.000405
2.100000	 0.000404
2.105000	 0.000404
2.110000	 0.000403
2.115000	 0.000402
2.120000	 0.000401
2.125000	 0.000401
2.130000	 0.000400
2.135000	 0.000399
2.140000	 0.000399
2.145000	 0.000398
2.150000	 0.000397
2.155000	 0.000397
2.160000	 0.000396
2.165000	 0.000395
2.170000	 0.000394
2.175000	 0.000394
2.180000	 0.000393
2.185000	 0.000392
2.190000	 0.000392
2.195000	 0.000391
2.200000	 0.000390
2.205000	 0.000390
2.210000	 0.000389
2.215000	 0.000388
2.220000	 0.000388
2.225000	 0.000387
2.230000	 0.000386
2.235000	 0.000386
2.240000	 0.000385
2.245000	 0.000385
2.250000	 0.000384
2.255000	 0.000383
2.260000	 0.000383
2.265000	 0.000382
2.270000	 0.000381
2.275000	 0.000381
2.280000	 0.000380
2.285000	 0.000379
2.290000	 0.000379
2.295000	 0.000378
2.300000	 0.000378
2.305000	 0.000377
2.310000	 0.000376
2.315000	 0.000376
2.320000	 0.000375
2.325000	 0.000375
2.330000	 0.000374
2.335000	 0.000373
2.340000	 0.000373
2.345000	 0.000372
2.350000	 0.000372
2.355000	 0.000371
2.360000	 0.000370
2.365000	 0.000370
2.370000	 0.000369
2.375000	 0.000369
2.380000	 0.000368
2.385000	 0.000368
2.390000	 0.000367
2.395000	 0.000366
2.400000	 0.000366
2.405000	 0.000365
2.410000	 0.000365
2.415000	 0.000364
2.420000	 0.000364
2.425000	 0.000363
2.430000	 0.000362
2.435000	 0.000362
2.440000	 0.000361
2.445000	 0.000361
2.450000	 0.000360
2.455000	 0.000360
2.460000	 0.000359
2.465000	 0.000359
2.470000	 0.000358
2.475000	 0.000357
2.480000	 0.000357
2.485000	 0.000356
2.490000	 0.000356
2.495000	 0.000355
2.500000	 0.000355
2.505000	 0.000354
2.510000	 0.000354
2.515000	 0.000353
2.520000	 0.000353
2.525000	 0.000352
2.530000	 0.000352
2.535000	 0.000351
2.540000	 0.000351
2.545000	 0.000350
2.550000	 0.000350
2.555000	 0.000349
2.560000	 0.000349
2.565000	 0.000348
2.570000	 0.000348
2.575000	 0.000347
2.580000	 0.000347
2.585000	 0.000346
2.590000	 0.000346
2.595000	 0.000345
2.600000	 0.000345
2.605000	 0.000344
2.610000	 0.000344
2.615000	 0.000343
2.620000	 0.000343
2.625000	 0.000342
2.630000	 0.000342
2.635000	 0.000341
2.640000	 0.000341
2.645000	 0.000340
2.650000	 0.000340
2.655000	 0.000339
2.660000	 0.000339
2.665000	 0.000338
2.670000	 0.000338
2.675000	 0.000337
2.680000	 0.000337
2.685000	 0.000336
2.690000	 0.000336
2.695000	 0.000335
2.700000	 0.000335
2.705000	 0.000334
2.710000	 0.000334
2.715000	 0.000334
2.720000	 0.000333
2.725000	 0.000333
2.730000	 0.000332
2.735000	 0.000332
2.740000	 0.000331
2.745000	 0.000331
2.750000	 0.000330
2.755000	 0.000330
2.760000	 0.000329
2.765000	 0.000329
2.770000	 0.000329
2.775000	 0.000328
2.780000	 0.000328
2.785000	 0.000327
2.790000	 0.000327
2.795000	 0.000326
2.800000	 0.000326
2.805000	 0.000325
2.810000	 0.000325
2.815000	 0.000325
2.820000	 0.000324
2.825000	 0.000324
2.830000	 0.000323
2.835000	 0.000323
2.840000	 0.000322
2.845000	 0.000322
2.850000	 0.000322
2.855000	 0.000321
2.860000	 0.000321
2.865000	 0.000320
2.870000	 0.000320
2.875000	 0.000320
2.880000	 0.000319
2.885000	 0.000319
2.890000	 0.000318
2.895000	 0.000318
2.900000	 0.000317
2.905000	 0.000317
2.910000	 0.000317
2.915000	 0.000316
2.920000	 0.000316
2.925000	 0.000315
2.930000	 0.000315
2.935000	 0.000315
2.940000	 0.000314
2.945000	 0.000314
2.950000	 0.000313
2.955000	 0.000313
2.960000	 0.000313
2.965000	 0.000312
2.970000	 0.000312
2.975000	 0.000311
2.980000	 0.000311
2.985000	 0.000311
2.990000	 0.000310
2.995000	 0.000310
3.000000	 0.000310
3.005000	 0.000309
3.010000	 0.000309
3.015000	 0.000308
3.020000	 0.000308
3.025000	 0.000308
3.030000	 0.000307
3.035000	 0.000307
3.040000	 0.000306
3.045000	 0.000306
3.050000	 0.000306
3.055000	 0.000305
3.060000	 0.000305
3.065000	 0.000305
3.070000	 0.000304
3.075000	 0.000304
3.080000	 0.000303
3.085000	 0.000303
3.090000	 0.000303
3.095000	 0.000302
3.100000	 0.000302
3.105000	 0.000302
3.110000	 0.000301
3.115000	 0.000301
3.120000	 0.000301
3.125000	 0.000300
3.130000	 0.000300
3.135000	 0.000299
3.140000	 0.000299
3.145000	 0.000299
3.150000	 0.000298
3.155000	 0.000298
3.160000	 0.000298
3.165000	 0.000297
3.170000	 0.000297
3.175000	 0.000297
3.180000	 0.000296
3.185000	 0.000296
3.190000	 0.000296
3.195000	 0.000295
3.200000	 0.000295
3.205000	 0.000295
3.210000	 0.000294
3.215000	 0.000294
3.220000	 0.000294
3.225000	 0.000293
3.230000	 0.000293
3.235000	 0.000292
3.240000	 0.000292
3.245000	 0.000292
3.250000	 0.000291
3.255000	 0.000291
3.260000	 0.000291
3.265000	 0.000290
3.270000	 0.000290
3.275000	 0.000290
3.280000	 0.000289
3.285000	 0.000289
3.290000	 0.000289
3.295000	 0.000288
3.300000	 0.000288
3.305000	 0.000288
3.310000	 0.000288
3.315000	 0.000287
3.320000	 0.000287
3.325000	 0.000287
3.330000	 0.000286
3.335000	 0.000286
3.340000	 0.000286
3.345000	 0.000285
3.350000	 0.000285
3.355000	 0.000285
3.360000	 0.000284
3.365000	 0.000284
3.370000	 0.000284
3.375000	 0.000283
3.380000	 0.000283
3.385000	 0.000283
3.390000	 0.000282
3.395000	 0.000282
3.400000	 0.000282
3.405000	 0.000281
3.410000	 0.000281
3.415000	 0.000281
3.420000	 0.000281
3.425000	 0.000280
3.430000	 0.000280
3.435000	 0.000280
3.440000	 0.000279
3.445000	 0.000279
3.450000	 0.000279
3.455000	 0.000278
3.460000	 0.000278
3.465000	 0.000278
3.470000	 0.000278
3.475000	 0.000277
3.480000	 0.000277
3.485000	 0.000277
3.490000	 0.000276
3.495000	 0.000276
3.500000	 0.000276
3.505000	 0.000275
3.510000	 0.000275
3.515000	 0.000275
3.520000	 0.000275
3.525000	 0.000274
3.530000	 0.000274
3.535000	 0.000274
3.540000	 0.000273
3.545000	 0.000273
3.550000	 0.000273
3.555000	 0.000273
3.560000	 0.000272
3.565000	 0.000272
3.570000	 0.000272
3.575000	 0.000271
3.580000	 0.000271
3.585000	 0.000271
3.590000	 0.000271
3.595000	 0.000270
3.600000	 0.000270
3.605000	 0.000270
3.610000	 0.000269
3.615000	 0.000269
3.620000	 0.000269
3.625000	 0.000269
3.630000	 0.000268
3.635000	 0.000268
3.640000	 0.000268
3.645000	 0.000267
3.650000	 0.000267
3.655000	 0.000267
3.660000	 0.000267
3.665000	 0.000266
3.670000	 0.000266
3.675000	 0.000266
3.680000	 0.000266
3.685000	 0.000265
3.690000	 0.000265
3.695000	 0.000265
3.700000	 0.000264
3.705000	 0.000264
3.710000	 0.000264
3.715000	 0.000264
3.720000	 0.000263
3.725000	 0.000263
3.730000	 0.000263
3.735000	 0.000263
3.740000	 0.000262
3.745000	 0.000262
3.750000	 0.000262
3.755000	 0.000262
3.760000	 0.000261
3.765000	 0.000261
3.770000	 0.000261
3.775000	 0.000261
3.780000	 0.000260
3.785000	 0.000260
3.790000	 0.000260
3.795000	 0.000260
3.800000	 0.000259
3.805000	 0.000259
3.810000	 0.000259
3.815000	 0.000258
3.820000	 0.000258
3.825000	 0.000258
3.830000	 0.000258
3.835000	 0.000257
3.840000	 0.000257
3.845000	 0.000257
3.850000	 0.000257
3.855000	 0.000256
3.860000	 0.000256
3.865000	 0.000256
3.870000	 0.000256
3.875000	 0.000255
3.880000	 0.000255
3.885000	 0.000255
3.890000	 0.000255
3.895000	 0.000254
3.900000	 0.000254
3.905000	 0.000254
3.910000	 0.000254
3.915000	 0.000254
3.920000	 0.000253
3.925000	 0.000253
3.930000	 0.000253
3.935000	 0.000253
3.940000	 0.000252
3.945000	 0.000252
3.950000	 0.000252
3.955000	 0.000252
3.960000	 0.000251
3.965000	 0.000251
3.970000	 0.000251
3.975000	 0.000251
3.980000	 0.000250
3.985000	 0.000250
3.990000	 0.000250
3.995000	 0.000250
4.000000	 0.000249
4.005000	 0.000249
4.010000	 0.000249
4.015000	 0.000249
4.020000	 0.000249
4.025000	 0.000248
4.030000	 0.000248
4.035000	 0.000248
4.040000	 0.000248
4.045000	 0.000247
4.050000	 0.000247
4.055000	 0.000247
4.060000	 0.000247
4.065000	 0.000246
4.070000	 0.000246
4.075000	 0.000246
4.080000	 0.000246
4.085000	 0.000246
4.090000	 0.000245
4.095000	 0.000245
4.100000	 0.000245
4.105000	 0.000245
4.110000	 0.000244
4.115000	 0.000244
4.120000	 0.000244
4.125000	 0.000244
4.130000	 0.000244
4.135000	 0.000243
4.140000	 0.000243
4.145000	 0.000243
4.150000	 0.000243
4.155000	 0.000242
4.160000	 0.000242
4.165000	 0.000242
4.170000	 0.000242
4.175000	 0.000242
4.180000	 0.000241
4.185000	 0.000241
4.190000	 0.000241
4.195000	 0.000241
4.200000	 0.000240
4.205000	 0.000240
4.210000	 0.000240
4.215000	 0.000240
4.220000	 0.000240
4.225000	 0.000239
4.230000	 0.000239
4.235000	 0.000239
4.240000	 0.000239
4.245000	 0.000239
4.250000	 0.000238
4.255000	 0.000238
4.260000	 0.000238
4.265000	 0.000238
4.270000	 0.000238
4.275000	 0.000237
4.280000	 0.000237
4.285000	 0.000237
4.290000	 0.000237
4.295000	 0.000236
4.300000	 0.000236
4.305000	 0.000236
4.310000	 0.000236
4.315000	 0.000236
4.320000	 0.000235
4.325000	 0.000235
4.330000	 0.000235
4.335000	 0.000235
4.340000	 0.000235
4.345000	 0.000234
4.350000	 0.000234
4.355000	 0.000234
4.360000	 0.000234
4.365000	 0.000234
4.370000	 0.000233
4.375000	 0.000233
4.380000	 0.000233
4.385000	 0.000233
4.390000	 0.000233
4.395000	 0.000232
4.400000	 0.000232
4.405000	 0.000232
4.410000	 0.000232
4.415000	 0.000232
4.420000	 0.000231
4.425000	 0.000231
4.430000	 0.000231
4.435000	 0.000231
4.440000	 0.000231
4.445000	 0.000230
4.450000	 0.000230
4.455000	 0.000230
4.460000	 0.000230
4.465000	 0.000230
4.470000	 0.000229
4.475000	 0.000229
4.480000	 0.000229
4.485000	 0.000229
4.490000	 0.000229
4.495000	 0.000229
4.500000	 0.000228
4.505000	 0.000228
4.510000	 0.000228
4.515000	 0.000228
4.520000	 0.000228
4.525000	 0.000227
4.530000	 0.000227
4.535000	 0.000227
4.540000	 0.000227
4.545000	 0.000227
4.550000	 0.000226
4.555000	 0.000226
4.560000	 0.000226
4.565000	 0.000226
4.570000	 0.000226
4.575000	 0.000226
4.580000	 0.000225
4.585000	 0.000225
4.590000	 0.000225
4.595000	 0.000225
4.600000	 0.000225
4.605000	 0.000224
4.610000	 0.000224
4.615000	 0.000224
4.620000	 0.000224
4.625000	 0.000224
4.630000	 0.000223
4.635000	 0.000223
4.640000	 0.000223
4.645000	 0.000223
4.650000	 0.000223
4.655000	 0.000223
4.660000	 0.000222
4.665000	 0.000222
4.670000	 0.000222
4.675000	 0.000222
4.680000	 0.000222
4.685000	 0.000221
4.690000	 0.000221
4.695000	 0.000221
4.700000	 0.000221
4.705000	 0.000221
4.710000	 0.000221
4.715000	 0.000220
4.720000	 0.000220
4.725000	 0.000220
4.730000	 0.000220
4.735000	 0.000220
4.740000	 0.000220
4.745000	 0.000219
4.750000	 0.000219
4.755000	 0.000219
4.760000	 0.000219
4.765000	 0.000219
4.770000	 0.000219
4.775000	 0.000218
4.780000	 0.000218
4.785000	 0.000218
4.790000	 0.000218
4.795000	 0.000218
4.800000	 0.000217
4.805000	 0.000217
4.810000	 0.000217
4.815000	 0.000217
4.820000	 0.000217
4.825000	 0.000217
4.830000	 0.000216
4.835000	 0.000216
4.840000	 0.000216
4.845000	 0.000216
4.850000	 0.000216
4.855000	 0.000216
4.860000	 0.000215
4.865000	 0.000215
4.870000	 0.000215
4.875000	 0.000215
4.880000	 0.000215
4.885000	 0.000215
4.890000	 0.000214
4.895000	 0.000214
4.900000	 0.000214
4.905000	 0.000214
4.910000	 0.000214
4.915000	 0.000214
4.920000	 0.000213
4.925000	 0.000213
4.930000	 0.000213
4.935000	 0.000213
4.940000	 0.000213
4.945000	 0.000213
4.950000	 0.000212
4.955000	 0.000212
4.960000	 0.000212
4.965000	 0.000212
4.970000	 0.000212
4.975000	 0.000212
4.980000	 0.000212
4.985000	 0.000211
4.990000	 0.000211
4.995000	 0.000211
5.000000	 0.000211
5.005000	 0.000211
5.010000	 0.000211
5.015000	 0.000210
5.020000	 0.000210
5.025000	 0.000210
5.030000	 0.000210
5.035000	 0.000210
5.040000	 0.000210
5.045000	 0.000209
5.050000	 0.000209
5.055000	 0.000209
5.060000	 0.000209
5.065000	 0.000209
5.070000	 0.000209
5.075000	 0.000208
5.080000	 0.000208
5.085000	 0.000208
5.090000	 0.000208
5.095000	 0.000208
5.100000	 0.000208
5.105000	 0.000208
5.110000	 0.000207
5.115000	 0.000207
5.120000	 0.000207
5.125000	 0.000207
5.130000	 0.000207
5.135000	 0.000207
5.140000	 0.000206
5.145000	 0.000206
5.150000	 0.000206
5.155000	 0.000206
5.160000	 0.000206
5.165000	 0.000206
5.170000	 0.000206
5.175000	 0.000205
5.180000	 0.000205
5.185000	 0.000205
5.190000	 0.000205
5.195000	 0.000205
5.200000	 0.000205
5.205000	 0.000205
5.210000	 0.000204
5.215000	 0.000204
5.220000	 0.000204
5.225000	 0.000204
5.230000	 0.000204
5.235000	 0.000204
5.240000	 0.000203
5.245000	 0.000203
5.250000	 0.000203
5.255000	 0.000203
5.260000	 0.000203
5.265000	 0.000203
5.270000	 0.000203
5.275000	 0.000202
5.280000	 0.000202
5.285000	 0.000202
5.290000	 0.000202
5.295000	 0.000202
5.300000	 0.000202
5.305000	 0.000202
5.310000	 0.000201
5.315000	 0.000201
5.320000	 0.000201
5.325000	 0.000201
5.330000	 0.000201
5.335000	 0.000201
5.340000	 0.000201
5.345000	 0.000200
5.350000	 0.000200
5.355000	 0.000200
5.360000	 0.000200
5.365000	 0.000200
5.370000	 0.000200
5.375000	 0.000200
5.380000	 0.000199
5.385000	 0.000199
5.390000	 0.000199
5.395000	 0.000199
5.400000	 0.000199
5.405000	 0.000199
5.410000	 0.000199
5.415000	 0.000198
5.420000	 0.000198
5.425000	 0.000198
5.430000	 0.000198
5.435000	 0.000198
5.440000	 0.000198
5.445000	 0.000198
5.450000	 0.000197
5.455000	 0.000197
5.460000	 0.000197
5.465000	 0.000197
5.470000	 0.000197
5.475000	 0.000197
5.480000	 0.000197
5.485000	 0.000196
5.490000	 0.000196
5.495000	 0.000196
5.500000	 0.000196
5.505000	 0.000196
5.510000	 0.000196
5.515000	 0.000196
5.520000	 0.000196
5.525000	 0.000195
5.530000	 0.000195
5.535000	 0.000195
5.540000	 0.000195
5.545000	 0.000195
5.550000	 0.000195
5.555000	 0.000195
5.560000	 0.000194
5.565000	 0.000194
5.570000	 0.000194
5.575000	 0.000194
5.580000	 0.000194
5.585000	 0.000194
5.590000	 0.000194
5.595000	 0.000194
5.600000	 0.000193
5.605000	 0.000193
5.610000	 0.000193
5.615000	 0.000193
5.620000	 0.000193
5.625000	 0.000193
5.630000	 0.000193
5.635000	 0.000192
5.640000	 0.000192
5.645000	 0.000192
5.650000	 0.000192
5.655000	 0.000192
5.660000	 0.000192
5.665000	 0.000192
5.670000	 0.000192
5.675000	 0.000191
5.680000	 0.000191
5.685000	 0.000191
5.690000	 0.000191
5.695000	 0.000191
5.700000	 0.000191
5.705000	 0.000191
5.710000	 0.000191
5.715000	 0.000190
5.720000	 0.000190
5.725000	 0.000190
5.730000	 0.000190
5.735000	 0.000190
5.740000	 0.000190
5.745000	 0.000190
5.750000	 0.000189
5.755000	 0.000189
5.760000	 0.000189
5.765000	 0.000189
5.770000	 0.000189
5.775000	 0.000189
5.780000	 0.000189
5.785000	 0.000189
5.790000	 0.000188
5.795000	 0.000188
5.800000	 0.000188
5.805000	 0.000188
5.810000	 0.000188
5.815000	 0.000188
5.820000	 0.000188
5.825000	 0.000188
5.830000	 0.000187
5.835000	 0.000187
5.840000	 0.000187
5.845000	 0.000187
5.850000	 0.000187
5.855000	 0.000187
5.860000	 0.000187
5.865000	 0.000187
5.870000	 0.000186
5.875000	 0.000186
5.880000	 0.000186
5.885000	 0.000186
5.890000	 0.000186
5.895000	 0.000186
5.900000	 0.000186
5.905000	 0.000186
5.910000	 0.000185
5.915000	 0.000185
5.920000	 0.000185
5.925000	 0.000185
5.930000	 0.000185
5.935000	 0.000185
5.940000	 0.000185
5.945000	 0.000185
5.950000	 0.000185
5.955000	 0.000184
5.960000	 0.000184
5.965000	 0.000184
5.970000	 0.000184
5.975000	 0.000184
5.980000	 0.000184
5.985000	 0.000184
5.990000	 0.000184
5.995000	 0.000183
6.000000	 0.000183
6.005000	 0.000183
6.010000	 0.000183
6.015000	 0.000183
6.020000	 0.000183
6.025000	 0.000183
6.030000	 0.000183
6.035000	 0.000182
6.040000	 0.000182
6.045000	 0.000182
6.050000	 0.000182
6.055000	 0.000182
6.060000	 0.000182
6.065000	 0.000182
6.070000	 0.000182
6.075000	 0.000182
6.080000	 0.000181
6.085000	 0.000181
6.090000	 0.000181
6.095000	 0.000181
6.100000	 0.000181
6.105000	 0.000181
6.110000	 0.000181
6.115000	 0.000181
6.120000	 0.000180
6.125000	 0.000180
6.130000	 0.000180
6.135000	 0.000180
6.140000	 0.000180
6.145000	 0.000180
6.150000	 0.000180
6.155000	 0.000180
6.160000	 0.000180
6.165000	 0.000179
6.170000	 0.000179
6.175000	 0.000179
6.180000	 0.000179
6.185000	 0.000179
6.190000	 0.000179
6.195000	 0.000179
6.200000	 0.000179
6.205000	 0.000179
6.210000	 0.000178
6.215000	 0.000178
6.220000	 0.000178
6.225000	 0.000178
6.230000	 0.000178
6.235000	 0.000178
6.240000	 0.000178
6.245000	 0.000178
6.250000	 0.000178
6.255000	 0.000177
6.260000	 0.000177
6.265000	 0.000177
6.270000	 0.000177
6.275000	 0.000177
6.280000	 0.000177
6.285000	 0.000177
6.290000	 0.000177
6.295000	 0.000177
6.300000	 0.000176
6.305000	 0.000176
6.310000	 0.000176
6.315000	 0.000176
6.320000	 0.000176
6.325000	 0.000176
6.330000	 0.000176
6.335000	 0.000176
6.340000	 0.000176
6.345000	 0.000175
6.350000	 0.000175
6.355000	 0.000175
6.360000	 0.000175
6.365000	 0.000175
6.370000	 0.000175
6.375000	 0.000175
6.380000	 0.000175
6.385000	 0.000175
6.390000	 0.000174
6.395000	 0.000174
6.400000	 0.000174
6.405000	 0.000174
6.410000	 0.000174
6.415000	 0.000174
6.420000	 0.000174
6.425000	 0.000174
6.430000	 0.000174
6.435000	 0.000173
6.440000	 0.000173
6.445000	 0.000173
6.450000	 0.000173
6.455000	 0.000173
6.460000	 0.000173
6.465000	 0.000173
6.470000	 0.000173
6.475000	 0.000173
6.480000	 0.000173
6.485000	 0.000172
6.490000	 0.000172
6.495000	 0.000172
6.500000	 0.000172
6.505000	 0.000172
6.510000	 0.000172
6.515000	 0.000172
6.520000	 0.000172
6.525000	 0.000172
6.530000	 0.000171
6.535000	 0.000171
6.540000	 0.000171
6.545000	 0.000171
6.550000	 0.000171
6.555000	 0.000171
6.560000	 0.000171
6.565000	 0.000171
6.570000	 0.000171
6.575000	 0.000171
6.580000	 0.000170
6.585000	 0.000170
6.590000	 0.000170
6.595000	 0.000170
6.600000	 0.000170
6.605000	 0.000170
6.610000	 0.000170
6.615000	 0.000170
6.620000	 0.000170
6.625000	 0.000169
6.630000	 0.000169
6.635000	 0.000169
6.640000	 0.000169
6.645000	 0.000169
6.650000	 0.000169
6.655000	 0.000169
6.660000	 0.000169
6.665000	 0.000169
6.670000	 0.000169
6.675000	 0.000168
6.680000	 0.000168
6.685000	 0.000168
6.690000	 0.000168
6.695000	 0.000168
6.700000	 0.000168
6.705000	 0.000168
6.710000	 0.000168
6.715000	 0.000168
6.720000	 0.000168
6.725000	 0.000167
6.730000	 0.000167
6.735000	 0.000167
6.740000	 0.000167
6.745000	 0.000167
6.750000	 0.000167
6.755000	 0.000167
6.760000	 0.000167
6.765000	 0.000167
6.770000	 0.000167
6.775000	 0.000166
6.780000	 0.000166
6.785000	 0.000166
6.790000	 0.000166
6.795000	 0.000166
6.800000	 0.000166
6.805000	 0.000166
6.810000	 0.000166
6.815000	 0.000166
6.820000	 0.000166
6.825000	 0.000165
6.830000	 0.000165
6.835000	 0.000165
6.840000	 0.000165
6.845000	 0.000165
6.850000	 0.000165
6.855000	 0.000165
6.860000	 0.000165
6.865000	 0.000165
6.870000	 0.000165
6.875000	 0.000164
6.880000	 0.000164
6.885000	 0.000164
6.890000	 0.000164
6.895000	 0.000164
6.900000	 0.000164
6.905000	 0.000164
6.910000	 0.000164
6.915000	 0.000164
6.920000	 0.000164
6.925000	 0.000164
6.930000	 0.000163
6.935000	 0.000163
6.940000	 0.000163
6.945000	 0.000163
6.950000	 0.000163
6.955000	 0.000163
6.960000	 0.000163
6.965000	 0.000163
6.970000	 0.000163
6.975000	 0.000163
6.980000	 0.000162
6.985000	 0.000162
6.990000	 0.000162
6.995000	 0.000162
7.000000	 0.000162
7.005000	 0.000162
7.010000	 0.000162
7.015000	 0.000162
7.020000	 0.000162
7.025000	 0.000162
7.030000	 0.000162
7.035000	 0.000161
7.040000	 0.000161
7.045000	 0.000161
7.050000	 0.000161
7.055000	 0.000161
7.060000	 0.000161
7.065000	 0.000161
7.070000	 0.000161
7.075000	 0.000161
7.080000	 0.000161
7.085000	 0.000160
7.090000	 0.000160
7.095000	 0.000160
7.100000	 0.000160
7.105000	 0.000160
7.110000	 0.000160
7.115000	 0.000160
7.120000	 0.000160
7.125000	 0.000160
7.130000	 0.000160
7.135000	 0.000160
7.140000	 0.000159
7.145000	 0.000159
7.150000	 0.000159
7.155000	 0.000159
7.160000	 0.000159
7.165000	 0.000159
7.170000	 0.000159
7.175000	 0.000159
7.180000	 0.000159
7.185000	 0.000159
7.190000	 0.000159
7.195000	 0.000158
7.200000	 0.000158
7.205000	 0.000158
7.210000	 0.000158
7.215000	 0.000158
7.220000	 0.000158
7.225000	 0.000158
7.230000	 0.000158
7.235000	 0.000158
7.240000	 0.000158
7.245000	 0.000158
7.250000	 0.000157
7.255000	 0.000157
7.260000	 0.000157
7.265000	 0.000157
7.270000	 0.000157
7.275000	 0.000157
7.280000	 0.000157
7.285000	 0.000157
7.290000	 0.000157
7.295000	 0.000157
7.300000	 0.000157
7.305000	 0.000156
7.310000	 0.000156
7.315000	 0.000156
7.320000	 0.000156
7.325000	 0.000156
7.330000	 0.000156
7.335000	 0.000156
7.340000	 0.000156
7.345000	 0.000156
7.350000	 0.000156
7.355000	 0.000156
7.360000	 0.000155
7.365000	 0.000155
7.370000	 0.000155
7.375000	 0.000155
7.380000	 0.000155
7.385000	 0.000155
7.390000	 0.000155
7.395000	 0.000155
7.400000	 0.000155
7.405000	 0.000155
7.410000	 0.000155
7.415000	 0.000154
7.420000	 0.000154
7.425000	 0.000154
7.430000	 0.000154
7.435000	 0.000154
7.440000	 0.000154
7.445000	 0.000154
7.450000	 0.000154
7.455000	 0.000154
7.460000	 0.000154
7.465000	 0.000154
7.470000	 0.000154
7.475000	 0.000153
7.480000	 0.000153
7.485000	 0.000153
7.490000	 0.000153
7.495000	 0.000153
7.500000	 0.000153
7.505000	 0.000153
7.510000	 0.000153
7.515000	 0.000153
7.520000	 0.000153
7.525000	 0.000153
7.530000	 0.000152
7.535000	 0.000152
7.540000	 0.000152
7.545000	 0.000152
7.550000	 0.000152
7.555000	 0.000152
7.560000	 0.000152
7.565000	 0.000152
7.570000	 0.000152
7.575000	 0.000152
7.580000	 0.000152
7.585000	 0.000152
7.590000	 0.000151
7.595000	 0.000151
7.600000	 0.000151
7.605000	 0.000151
7.610000	 0.000151
7.615000	 0.000151
7.620000	 0.000151
7.625000	 0.000151
7.630000	 0.000151
7.635000	 0.000151
7.640000	 0.000151
7.645000	 0.000151
7.650000	 0.000150
7.655000	 0.000150
7.660000	 0.000150
7.665000	 0.000150
7.670000	 0.000150
7.675000	 0.000150
7.680000	 0.000150
7.685000	 0.000150
7.690000	 0.000150
7.695000	 0.000150
7.700000	 0.000150
7.705000	 0.000150
7.710000	 0.000149
7.715000	 0.000149
7.720000	 0.000149
7.725000	 0.000149
7.730000	 0.000149
7.735000	 0.000149
7.740000	 0.000149
7.745000	 0.000149
7.750000	 0.000149
7.755000	 0.000149
7.760000	 0.000149
7.765000	 0.000149
7.770000	 0.000148
7.775000	 0.000148
7.780000	 0.000148
7.785000	 0.000148
7.790000	 0.000148
7.795000	 0.000148
7.800000	 0.000148
7.805000	 0.000148
7.810000	 0.000148
7.815000	 0.000148
7.820000	 0.000148
7.825000	 0.000148
7.830000	 0.000147
7.835000	 0.000147
7.840000	 0.000147
7.845000	 0.000147
7.850000	 0.000147
7.855000	 0.000147
7.860000	 0.000147
7.865000	 0.000147
7.870000	 0.000147
7.875000	 0.000147