Variables= "X","Y"
zone T= "BLOCK1", I=10, J=10

0.000000	-0.446388
0.301030	-0.854088
0.477121	-1.057562
0.602060	-1.224376
0.698970	-1.368981
0.778151	-1.500968
0.845098	-1.626871
0.903090	-1.751085
0.954243	-1.876719
1.000000	-2.019162
1.041393	-2.180868
1.079181	-2.358178
1.113943	-2.559865
1.146128	-2.796339
1.176091	-3.065288
1.204120	-3.338041
1.230449	-3.547655
1.255273	-3.705455
1.278754	-3.792113
1.301030	-4.475334
1.322219	-4.616293
1.342423	-4.950493
1.361728	-5.244627
1.380211	-5.546517
1.397940	-5.796766
1.414973	-6.024800
1.431364	-6.246270
1.447158	-6.519762
1.462398	-6.838498
1.477121	-7.146053
1.491362	-7.412990
1.505150	-7.698381
1.518514	-8.044308
