Variables= "X","Y"
zone T= "BLOCK1", I=10, J=10

0.301030	 0.8618954381
0.477121	 0.5825241784
0.602060	 0.4130398419
0.698970	 0.2993709943
0.778151	 0.2151241599
0.845098	 0.1483237244
0.903090	 0.0929585312
0.954243	 0.0456494408
1.000000	 0.0043186089
1.041393	 -0.0324005509
1.079181	 -0.0654541140
1.113943	 -0.0955238871
1.146128	 -0.1231173571
1.176091	 -0.1486224206
1.204120	 -0.1723422222
1.230449	 -0.1945181832
1.255273	 -0.2153457161
1.278754	 -0.2349852465
1.301030	 -0.2535701274
1.322219	 -0.2712124431
1.342423	 -0.2880073431
1.361728	 -0.3040363317
1.380211	 -0.3193698015
1.397940	 -0.3340690093
1.414973	 -0.3481876353
1.431364	 -0.3617730262
1.447158	 -0.3748671952
1.462398	 -0.3875076333
1.477121	 -0.3997279717
1.491362	 -0.4115585271
1.505150	 -0.4230267529
1.518514	 -0.4341576136
1.531479	 -0.4449738995
1.544068	 -0.4554964893
1.556303	 -0.4657445731
1.568202	 -0.4757358406
1.579784	 -0.4854866417
1.591065	 -0.4950121241
1.602060	 -0.5043263511
1.612784	 -0.5134424036
1.623249	 -0.5223724688
1.633468	 -0.5311279172
1.643453	 -0.5397193706
1.653213	 -0.5481567616
1.662758	 -0.5564493869
1.672098	 -0.5646059544
1.681241	 -0.5726346256
1.690196	 -0.5805430540
1.698970	 -0.5883384197
1.707570	 -0.5960274609
1.716003	 -0.6036165028
1.724276	 -0.6111114843
1.732394	 -0.6185179822
1.740363	 -0.6258412341
1.748188	 -0.6330861593
1.755875	 -0.6402573786
1.763428	 -0.6473592321
1.770852	 -0.6543957966
1.778151	 -0.6613709018
1.785330	 -0.6682881448
1.792392	 -0.6751509042
1.799341	 -0.6819623538
1.806180	 -0.6887254744
1.812913	 -0.6954430661
1.819544	 -0.7021177585
1.826075	 -0.7087520217
1.832509	 -0.7153481757
1.838849	 -0.7219083997
1.845098	 -0.7284347405
1.851258	 -0.7349291208
1.857332	 -0.7413933465
1.863323	 -0.7478291144
1.869232	 -0.7542380183
1.875061	 -0.7606215558
1.880814	 -0.7669811342
1.886491	 -0.7733180756
1.892095	 -0.7796336229
1.897627	 -0.7859289441
1.903090	 -0.7922051373
1.908485	 -0.7984632349
1.913814	 -0.8047042076
1.919078	 -0.8109289686
1.924279	 -0.8171383765
1.929419	 -0.8233332394
1.934498	 -0.8295143177
1.939519	 -0.8356823270
1.944483	 -0.8418379409
1.949390	 -0.8479817940
1.954243	 -0.8541144836
1.959041	 -0.8602365727
1.963788	 -0.8663485917
1.968483	 -0.8724510405
1.973128	 -0.8785443905
1.977724	 -0.8846290862
1.982271	 -0.8907055469
1.986772	 -0.8967741684
1.991226	 -0.9028353243
1.995635	 -0.9088893671
2.000000	 -0.9149366300
2.004321	 -0.9209774278
2.008600	 -0.9270120578
2.012837	 -0.9330408014
2.017033	 -0.9390639245
2.021189	 -0.9450816788
2.025306	 -0.9510943024
2.029384	 -0.9571020207
2.033424	 -0.9631050475
2.037426	 -0.9691035850
2.041393	 -0.9750978250
2.045323	 -0.9810879493
2.049218	 -0.9870741304
2.053078	 -0.9930565319
2.056905	 -0.9990353093
2.060698	 -1.0050106100
2.064458	 -1.0109825742
2.068186	 -1.0169513350
2.071882	 -1.0229170192
2.075547	 -1.0288797470
2.079181	 -1.0348396330
2.082785	 -1.0407967864
2.086360	 -1.0467513110
2.089905	 -1.0527033057
2.093422	 -1.0586528647
2.096910	 -1.0646000780
2.100371	 -1.0705450311
2.103804	 -1.0764878060
2.107210	 -1.0824284806
2.110590	 -1.0883671294
2.113943	 -1.0943038236
2.117271	 -1.1002386313
2.120574	 -1.1061716173
2.123852	 -1.1121028440
2.127105	 -1.1180323707
2.130334	 -1.1239602544
2.133539	 -1.1298865495
2.136721	 -1.1358113083
2.139879	 -1.1417345806
2.143015	 -1.1476564145
2.146128	 -1.1535768558
2.149219	 -1.1594959486
2.152288	 -1.1654137352
2.155336	 -1.1713302561
2.158362	 -1.1772455502
2.161368	 -1.1831596549
2.164353	 -1.1890726062
2.167317	 -1.1949844386
2.170262	 -1.2008951853
2.173186	 -1.2068048782
2.176091	 -1.2127135480
2.178977	 -1.2186212243
2.181844	 -1.2245279354
2.184691	 -1.2304337088
2.187521	 -1.2363385708
2.190332	 -1.2422425469
2.193125	 -1.2481456616
2.195900	 -1.2540479384
2.198657	 -1.2599494001
2.201397	 -1.2658500686
2.204120	 -1.2717499652
2.206826	 -1.2776491104
2.209515	 -1.2835475237
2.212188	 -1.2894452243
2.214844	 -1.2953422307
2.217484	 -1.3012385605
2.220108	 -1.3071342310
2.222716	 -1.3130292588
2.225309	 -1.3189236599
2.227887	 -1.3248174499
2.230449	 -1.3307106438
2.232996	 -1.3366032562
2.235528	 -1.3424953010
2.238046	 -1.3483867921
2.240549	 -1.3542777424
2.243038	 -1.3601681649
2.245513	 -1.3660580718
2.247973	 -1.3719474752
2.250420	 -1.3778363867
2.252853	 -1.3837248176
2.255273	 -1.3896127787
2.257679	 -1.3955002807
2.260071	 -1.4013873339
2.262451	 -1.4072739482
2.264818	 -1.4131601332
2.267172	 -1.4190458985
2.269513	 -1.4249312530
2.271842	 -1.4308162056
2.274158	 -1.4367007650
2.276462	 -1.4425849395
2.278754	 -1.4484687372
2.281033	 -1.4543521660
2.283301	 -1.4602352335
2.285557	 -1.4661179472
2.287802	 -1.4720003143
2.290035	 -1.4778823419
2.292256	 -1.4837640369
2.294466	 -1.4896454058
2.296665	 -1.4955264552
2.298853	 -1.5014071914
2.301030	 -1.5072876206
2.303196	 -1.5131677486
2.305351	 -1.5190475814
2.307496	 -1.5249271246
2.309630	 -1.5308063838
2.311754	 -1.5366853643
2.313867	 -1.5425640713
2.315970	 -1.5484425101
2.318063	 -1.5543206855
2.320146	 -1.5601986024
2.322219	 -1.5660762656
2.324282	 -1.5719536797
2.326336	 -1.5778308492
2.328380	 -1.5837077785
2.330414	 -1.5895844719
2.332438	 -1.5954609335
2.334454	 -1.6013371675
2.336460	 -1.6072131779
2.338456	 -1.6130889685
2.340444	 -1.6189645432
2.342423	 -1.6248399056
2.344392	 -1.6307150594
2.346353	 -1.6365900082
2.348305	 -1.6424647554
2.350248	 -1.6483393043
2.352183	 -1.6542136584
2.354108	 -1.6600878209
2.356026	 -1.6659617948
2.357935	 -1.6718355834
2.359835	 -1.6777091895
2.361728	 -1.6835826163
2.363612	 -1.6894558666
2.365488	 -1.6953289431
2.367356	 -1.7012018488
2.369216	 -1.7070745863
2.371068	 -1.7129471582
2.372912	 -1.7188195672
2.374748	 -1.7246918158
2.376577	 -1.7305639066
2.378398	 -1.7364358418
2.380211	 -1.7423076241
2.382017	 -1.7481792556
2.383815	 -1.7540507386
2.385606	 -1.7599220756
2.387390	 -1.7657932685
2.389166	 -1.7716643197
2.390935	 -1.7775352312
2.392697	 -1.7834060050
2.394452	 -1.7892766433
2.396199	 -1.7951471481
2.397940	 -1.8010175213
2.399674	 -1.8068877647
2.401401	 -1.8127578804
2.403121	 -1.8186278701
2.404834	 -1.8244977357
2.406540	 -1.8303674790
2.408240	 -1.8362371016
2.409933	 -1.8421066054
2.411620	 -1.8479759920
2.413300	 -1.8538452631
2.414973	 -1.8597144202
2.416641	 -1.8655834650
2.418301	 -1.8714523991
2.419956	 -1.8773212239
2.421604	 -1.8831899411
2.423246	 -1.8890585521
2.424882	 -1.8949270583
2.426511	 -1.9007954612
2.428135	 -1.9066637622
2.429752	 -1.9125319626
2.431364	 -1.9184000640
2.432969	 -1.9242680675
2.434569	 -1.9301359745
2.436163	 -1.9360037863
2.437751	 -1.9418715041
2.439333	 -1.9477391293
2.440909	 -1.9536066631
2.442480	 -1.9594741066
2.444045	 -1.9653414611
2.445604	 -1.9712087277
2.447158	 -1.9770759075
2.448706	 -1.9829430018
2.450249	 -1.9888100117
2.451786	 -1.9946769381
2.453318	 -2.0005437823
2.454845	 -2.0064105453
2.456366	 -2.0122772281
2.457882	 -2.0181438317
2.459392	 -2.0240103572
2.460898	 -2.0298768056
2.462398	 -2.0357431779
2.463893	 -2.0416094750
2.465383	 -2.0474756979
2.466868	 -2.0533418475
2.468347	 -2.0592079247
2.469822	 -2.0650739305
2.471292	 -2.0709398658
2.472756	 -2.0768057314
2.474216	 -2.0826715283
2.475671	 -2.0885372572
2.477121	 -2.0944029190
2.478566	 -2.1002685147
2.480007	 -2.1061340449
2.481443	 -2.1119995104
2.482874	 -2.1178649122
2.484300	 -2.1237302510
2.485721	 -2.1295955275
2.487138	 -2.1354607426
2.488551	 -2.1413258969
2.489958	 -2.1471909912
2.491362	 -2.1530560263
2.492760	 -2.1589210029
2.494155	 -2.1647859216
2.495544	 -2.1706507832
2.496930	 -2.1765155884
2.498311	 -2.1823803379
2.499687	 -2.1882450323
2.501059	 -2.1941096724
2.502427	 -2.1999742586
2.503791	 -2.2058387918
2.505150	 -2.2117032726
2.506505	 -2.2175677015
2.507856	 -2.2234320792
2.509203	 -2.2292964063
2.510545	 -2.2351606834
2.511883	 -2.2410249111
2.513218	 -2.2468890900
2.514548	 -2.2527532207
2.515874	 -2.2586173037
2.517196	 -2.2644813396
2.518514	 -2.2703453290
2.519828	 -2.2762092724
2.521138	 -2.2820731704
2.522444	 -2.2879370235
2.523746	 -2.2938008322
2.525045	 -2.2996645970
2.526339	 -2.3055283185
2.527630	 -2.3113919972
2.528917	 -2.3172556335
2.530200	 -2.3231192280
2.531479	 -2.3289827812
2.532754	 -2.3348462935
2.534026	 -2.3407097655
2.535294	 -2.3465731975
2.536558	 -2.3524365900
2.537819	 -2.3582999436
2.539076	 -2.3641632586
2.540329	 -2.3700265356
2.541579	 -2.3758897749
2.542825	 -2.3817529770
2.544068	 -2.3876161423
2.545307	 -2.3934792712
2.546543	 -2.3993423642
2.547775	 -2.4052054217
2.549003	 -2.4110684441
2.550228	 -2.4169314317
2.551450	 -2.4227943851
2.552668	 -2.4286573045
2.553883	 -2.4345201905
2.555094	 -2.4403830432
2.556303	 -2.4462458632
2.557507	 -2.4521086509
2.558709	 -2.4579714065
2.559907	 -2.4638341304
2.561101	 -2.4696968231
2.562293	 -2.4755594849
2.563481	 -2.4814221160
2.564666	 -2.4872847170
2.565848	 -2.4931472880
2.567026	 -2.4990098295
2.568202	 -2.5048723419
2.569374	 -2.5107348253
2.570543	 -2.5165972802
2.571709	 -2.5224597068
2.572872	 -2.5283221056
2.574031	 -2.5341844768
2.575188	 -2.5400468207
2.576341	 -2.5459091376
2.577492	 -2.5517714279
2.578639	 -2.5576336918
2.579784	 -2.5634959297
2.580925	 -2.5693581418
2.582063	 -2.5752203284
2.583199	 -2.5810824898
2.584331	 -2.5869446264
2.585461	 -2.5928067383
2.586587	 -2.5986688259
2.587711	 -2.6045308894
2.588832	 -2.6103929291
2.589950	 -2.6162549452
2.591065	 -2.6221169381
2.592177	 -2.6279789080
2.593286	 -2.6338408552
2.594393	 -2.6397027798
2.595496	 -2.6455646823
2.596597	 -2.6514265627
2.597695	 -2.6572884214
2.598791	 -2.6631502585
2.599883	 -2.6690120745
2.600973	 -2.6748738694
2.602060	 -2.6807356435
2.603144	 -2.6865973971
2.604226	 -2.6924591303
2.605305	 -2.6983208434
2.606381	 -2.7041825367
2.607455	 -2.7100442103
2.608526	 -2.7159058645
2.609594	 -2.7217674995
2.610660	 -2.7276291155
2.611723	 -2.7334907126
2.612784	 -2.7393522913
2.613842	 -2.7452138515
2.614897	 -2.7510753936
2.615950	 -2.7569369177
2.617000	 -2.7627984240
2.618048	 -2.7686599128
2.619093	 -2.7745213842
2.620136	 -2.7803828384
2.621176	 -2.7862442756
2.622214	 -2.7921056961
2.623249	 -2.7979670999
2.624282	 -2.8038284873
2.625312	 -2.8096898584
2.626340	 -2.8155512135
2.627366	 -2.8214125527
2.628389	 -2.8272738761
2.629410	 -2.8331351841
2.630428	 -2.8389964767
2.631444	 -2.8448577540
2.632457	 -2.8507190164
2.633468	 -2.8565802639
2.634477	 -2.8624414967
2.635484	 -2.8683027149
2.636488	 -2.8741639188
2.637490	 -2.8800251085
2.638489	 -2.8858862841
2.639486	 -2.8917474458
2.640481	 -2.8976085938
2.641474	 -2.9034697281
2.642465	 -2.9093308491
2.643453	 -2.9151919567
2.644439	 -2.9210530511
2.645422	 -2.9269141326
2.646404	 -2.9327752012
2.647383	 -2.9386362571
2.648360	 -2.9444973004
2.649335	 -2.9503583313
2.650308	 -2.9562193498
2.651278	 -2.9620803562
2.652246	 -2.9679413506
2.653213	 -2.9738023330
2.654177	 -2.9796633037
2.655138	 -2.9855242627
2.656098	 -2.9913852102
2.657056	 -2.9972461464
2.658011	 -3.0031070712
2.658965	 -3.0089679850
2.659916	 -3.0148288877
2.660865	 -3.0206897795
2.661813	 -3.0265506606
2.662758	 -3.0324115310
2.663701	 -3.0382723908
2.664642	 -3.0441332402
2.665581	 -3.0499940794
2.666518	 -3.0558549083
2.667453	 -3.0617157271
2.668386	 -3.0675765360
2.669317	 -3.0734373350
2.670246	 -3.0792981243
2.671173	 -3.0851589039
2.672098	 -3.0910196739
2.673021	 -3.0968804345
2.673942	 -3.1027411858
2.674861	 -3.1086019279
2.675778	 -3.1144626608
2.676694	 -3.1203233847
2.677607	 -3.1261840997
2.678518	 -3.1320448058
2.679428	 -3.1379055032
2.680336	 -3.1437661919
2.681241	 -3.1496268721
2.682145	 -3.1554875439
2.683047	 -3.1613482073
2.683947	 -3.1672088624
2.684845	 -3.1730695094
2.685742	 -3.1789301482
2.686636	 -3.1847907791
2.687529	 -3.1906514020
2.688420	 -3.1965120171
2.689309	 -3.2023726245
2.690196	 -3.2082332242
2.691081	 -3.2140938163
2.691965	 -3.2199544010
2.692847	 -3.2258149782
2.693727	 -3.2316755482
2.694605	 -3.2375361108
2.695482	 -3.2433966663
2.696356	 -3.2492572148
2.697229	 -3.2551177562
2.698101	 -3.2609782906
2.698970	 -3.2668388182
2.699838	 -3.2726993391
2.700704	 -3.2785598532
2.701568	 -3.2844203607
2.702431	 -3.2902808616
2.703291	 -3.2961413560
2.704151	 -3.3020018440
2.705008	 -3.3078623256
2.705864	 -3.3137228010
2.706718	 -3.3195832702
2.707570	 -3.3254437332
2.708421	 -3.3313041901
2.709270	 -3.3371646410
2.710117	 -3.3430250860
2.710963	 -3.3488855250
2.711807	 -3.3547459583
2.712650	 -3.3606063858
2.713491	 -3.3664668076
2.714330	 -3.3723272238
2.715167	 -3.3781876344
2.716003	 -3.3840480395
2.716838	 -3.3899084392
2.717671	 -3.3957688335
2.718502	 -3.4016292224
2.719331	 -3.4074896061
2.720159	 -3.4133499845
2.720986	 -3.4192103578
2.721811	 -3.4250707260
2.722634	 -3.4309310892
2.723456	 -3.4367914473
2.724276	 -3.4426518006
2.725095	 -3.4485121489
2.725912	 -3.4543724924
2.726727	 -3.4602328311
2.727541	 -3.4660931652
2.728354	 -3.4719534945
2.729165	 -3.4778138192
2.729974	 -3.4836741393
2.730782	 -3.4895344550
2.731589	 -3.4953947661
2.732394	 -3.5012550728
2.733197	 -3.5071153752
2.733999	 -3.5129756732
2.734800	 -3.5188359669
2.735599	 -3.5246962564
2.736397	 -3.5305565417
2.737193	 -3.5364168229
2.737987	 -3.5422771000
2.738781	 -3.5481373730
2.739572	 -3.5539976420
2.740363	 -3.5598579070
2.741152	 -3.5657181681
2.741939	 -3.5715784253
2.742725	 -3.5774386787
2.743510	 -3.5832989283
2.744293	 -3.5891591742
2.745075	 -3.5950194163
2.745855	 -3.6008796548
2.746634	 -3.6067398896
2.747412	 -3.6126001208
2.748188	 -3.6184603485
2.748963	 -3.6243205726
2.749736	 -3.6301807933
2.750508	 -3.6360410105
2.751279	 -3.6419012244
2.752048	 -3.6477614348
2.752816	 -3.6536216419
2.753583	 -3.6594818458
2.754348	 -3.6653420464
2.755112	 -3.6712022437
2.755875	 -3.6770624379
2.756636	 -3.6829226289
2.757396	 -3.6887828168
2.758155	 -3.6946430016
2.758912	 -3.7005031834
2.759668	 -3.7063633621
2.760422	 -3.7122235379
2.761176	 -3.7180837107
2.761928	 -3.7239438806
2.762679	 -3.7298040476
2.763428	 -3.7356642117
2.764176	 -3.7415243730
2.764923	 -3.7473845315
2.765669	 -3.7532446873
2.766413	 -3.7591048403
2.767156	 -3.7649649906
2.767898	 -3.7708251382
2.768638	 -3.7766852832
2.769377	 -3.7825454255
2.770115	 -3.7884055653
2.770852	 -3.7942657025
2.771587	 -3.8001258372
2.772322	 -3.8059859694
2.773055	 -3.8118460990
2.773786	 -3.8177062263
2.774517	 -3.8235663511
2.775246	 -3.8294264735
2.775974	 -3.8352865935
2.776701	 -3.8411467112
2.777427	 -3.8470068266
2.778151	 -3.8528669396
2.778874	 -3.8587270504
2.779596	 -3.8645871590
2.780317	 -3.8704472653
2.781037	 -3.8763073694
2.781755	 -3.8821674714
2.782473	 -3.8880275711
2.783189	 -3.8938876688
2.783904	 -3.8997477644
2.784617	 -3.9056078578
2.785330	 -3.9114679492
2.786041	 -3.9173280386
2.786751	 -3.9231881260
2.787460	 -3.9290482114
2.788168	 -3.9349082947
2.788875	 -3.9407683762
2.789581	 -3.9466284557
2.790285	 -3.9524885333
2.790988	 -3.9583486090
2.791691	 -3.9642086829
2.792392	 -3.9700687549
2.793092	 -3.9759288250
2.793790	 -3.9817888934
2.794488	 -3.9876489600
2.795185	 -3.9935090248
2.795880	 -3.9993690879
2.796574	 -4.0052291492
2.797268	 -4.0110892088
2.797960	 -4.0169492667
2.798651	 -4.0228093230
2.799341	 -4.0286693776
2.800029	 -4.0345294305
2.800717	 -4.0403894818
2.801404	 -4.0462495316
2.802089	 -4.0521095797
2.802774	 -4.0579696263
2.803457	 -4.0638296713
2.804139	 -4.0696897148
2.804821	 -4.0755497568
2.805501	 -4.0814097972
2.806180	 -4.0872698362
2.806858	 -4.0931298737
2.807535	 -4.0989899098
2.808211	 -4.1048499444
2.808886	 -4.1107099776
2.809560	 -4.1165700094
2.810233	 -4.1224300398
2.810904	 -4.1282900688
2.811575	 -4.1341500965
2.812245	 -4.1400101228
2.812913	 -4.1458701477
2.813581	 -4.1517301714
2.814248	 -4.1575901938
2.814913	 -4.1634502148
2.815578	 -4.1693102346
2.816241	 -4.1751702532
2.816904	 -4.1810302704
2.817565	 -4.1868902865
2.818226	 -4.1927503013
2.818885	 -4.1986103149
2.819544	 -4.2044703274
2.820201	 -4.2103303386
2.820858	 -4.2161903487
2.821514	 -4.2220503576
2.822168	 -4.2279103654
2.822822	 -4.2337703720
2.823474	 -4.2396303775
2.824126	 -4.2454903819
2.824776	 -4.2513503853
2.825426	 -4.2572103875
2.826075	 -4.2630703887
2.826723	 -4.2689303888
2.827369	 -4.2747903878
2.828015	 -4.2806503858
2.828660	 -4.2865103828
2.829304	 -4.2923703788
2.829947	 -4.2982303738
2.830589	 -4.3040903677
2.831230	 -4.3099503607
2.831870	 -4.3158103528
2.832509	 -4.3216703438
2.833147	 -4.3275303339
2.833784	 -4.3333903231
2.834421	 -4.3392503114
2.835056	 -4.3451102987
2.835691	 -4.3509702851
2.836324	 -4.3568302706
2.836957	 -4.3626902552
2.837588	 -4.3685502390
2.838219	 -4.3744102218
2.838849	 -4.3802702039
2.839478	 -4.3861301850
2.840106	 -4.3919901653
2.840733	 -4.3978501448
2.841359	 -4.4037101234
2.841985	 -4.4095701013
2.842609	 -4.4154300783
2.843233	 -4.4212900545
2.843855	 -4.4271500300
2.844477	 -4.4330100046
2.845098	 -4.4388699785
2.845718	 -4.4447299516
2.846337	 -4.4505899240
2.846955	 -4.4564498956
2.847573	 -4.4623098665
2.848189	 -4.4681698366
2.848805	 -4.4740298060
2.849419	 -4.4798897747
2.850033	 -4.4857497427
2.850646	 -4.4916097100
2.851258	 -4.4974696766
2.851870	 -4.5033296425
2.852480	 -4.5091896078
2.853090	 -4.5150495723
2.853698	 -4.5209095362
2.854306	 -4.5267694995
2.854913	 -4.5326294621
2.855519	 -4.5384894240
2.856124	 -4.5443493853
2.856729	 -4.5502093460
2.857332	 -4.5560693061
2.857935	 -4.5619292655
2.858537	 -4.5677892244
2.859138	 -4.5736491826
2.859739	 -4.5795091402
2.860338	 -4.5853690973
2.860937	 -4.5912290538
2.861534	 -4.5970890097
2.862131	 -4.6029489650
2.862728	 -4.6088089197
2.863323	 -4.6146688739
2.863917	 -4.6205288276
2.864511	 -4.6263887807
2.865104	 -4.6322487333
2.865696	 -4.6381086853
2.866287	 -4.6439686368
2.866878	 -4.6498285878
2.867467	 -4.6556885383
2.868056	 -4.6615484882
2.868644	 -4.6674084377
2.869232	 -4.6732683866
2.869818	 -4.6791283350
2.870404	 -4.6849882830
2.870989	 -4.6908482305
2.871573	 -4.6967081775
2.872156	 -4.7025681240
2.872739	 -4.7084280701
2.873321	 -4.7142880156
2.873902	 -4.7201479608
2.874482	 -4.7260079054
2.875061	 -4.7318678497
2.875640	 -4.7377277935
2.876218	 -4.7435877368
2.876795	 -4.7494476797
2.877371	 -4.7553076222
2.877947	 -4.7611675643
2.878522	 -4.7670275059
2.879096	 -4.7728874471
2.879669	 -4.7787473879
2.880242	 -4.7846073283
2.880814	 -4.7904672683
2.881385	 -4.7963272080
2.881955	 -4.8021871472
2.882525	 -4.8080470860
2.883093	 -4.8139070244
2.883661	 -4.8197669625
2.884229	 -4.8256269001
2.884795	 -4.8314868375
2.885361	 -4.8373467744
2.885926	 -4.8432067110
2.886491	 -4.8490666472
2.887054	 -4.8549265830
2.887617	 -4.8607865185
2.888179	 -4.8666464536
2.888741	 -4.8725063884
2.889302	 -4.8783663229
2.889862	 -4.8842262570
2.890421	 -4.8900861908
2.890980	 -4.8959461243
2.891537	 -4.9018060574
2.892095	 -4.9076659902
2.892651	 -4.9135259227
2.893207	 -4.9193858549
2.893762	 -4.9252457867
2.894316	 -4.9311057182
2.894870	 -4.9369656495
2.895423	 -4.9428255804
2.895975	 -4.9486855111
2.896526	 -4.9545454414
2.897077	 -4.9604053715
2.897627	 -4.9662653012
2.898176	 -4.9721252307
2.898725	 -4.9779851599
2.899273	 -4.9838450888
2.899821	 -4.9897050174
2.900367	 -4.9955649457
2.900913	 -5.0014248738
2.901458	 -5.0072848016
2.902003	 -5.0131447292
2.902547	 -5.0190046564
2.903090	 -5.0248645835
2.903633	 -5.0307245102
2.904174	 -5.0365844367
2.904716	 -5.0424443630
2.905256	 -5.0483042890
2.905796	 -5.0541642147
2.906335	 -5.0600241402
2.906874	 -5.0658840655
2.907411	 -5.0717439905
2.907949	 -5.0776039153
2.908485	 -5.0834638399
2.909021	 -5.0893237642
2.909556	 -5.0951836883
2.910091	 -5.1010436122
2.910624	 -5.1069035358
2.911158	 -5.1127634593
2.911690	 -5.1186233825
2.912222	 -5.1244833055
2.912753	 -5.1303432283
2.913284	 -5.1362031508
2.913814	 -5.1420630732
2.914343	 -5.1479229953
2.914872	 -5.1537829173
2.915400	 -5.1596428390
2.915927	 -5.1655027606
2.916454	 -5.1713626819
2.916980	 -5.1772226031
2.917506	 -5.1830825240
2.918030	 -5.1889424448
2.918555	 -5.1948023653
2.919078	 -5.2006622857
2.919601	 -5.2065222059
2.920123	 -5.2123821259
2.920645	 -5.2182420458
2.921166	 -5.2241019654
2.921686	 -5.2299618848
2.922206	 -5.2358218042
2.922725	 -5.2416817233
2.923244	 -5.2475416422
2.923762	 -5.2534015610
2.924279	 -5.2592614796
2.924796	 -5.2651213981
2.925312	 -5.2709813164
2.925828	 -5.2768412345
2.926342	 -5.2827011524
2.926857	 -5.2885610702
2.927370	 -5.2944209879
2.927883	 -5.3002809053
2.928396	 -5.3061408227
2.928908	 -5.3120007398
2.929419	 -5.3178606568
2.929930	 -5.3237205737
2.930440	 -5.3295804905
2.930949	 -5.3354404071
2.931458	 -5.3413003235
2.931966	 -5.3471602398
2.932474	 -5.3530201559
2.932981	 -5.3588800718
2.933487	 -5.3647399877
2.933993	 -5.3705999035
2.934498	 -5.3764598191
2.935003	 -5.3823197346
2.935507	 -5.3881796499
2.936011	 -5.3940395651
2.936514	 -5.3998994803
2.937016	 -5.4057593951
2.937518	 -5.4116193099
2.938019	 -5.4174792246
2.938520	 -5.4233391391
2.939020	 -5.4291990536
2.939519	 -5.4350589680
2.940018	 -5.4409188821
2.940516	 -5.4467787962
2.941014	 -5.4526387102
2.941511	 -5.4584986240
2.942008	 -5.4643585377
2.942504	 -5.4702184513
2.943000	 -5.4760783649
2.943495	 -5.4819382782
2.943989	 -5.4877981916
2.944483	 -5.4936581047
2.944976	 -5.4995180177
2.945469	 -5.5053779308
2.945961	 -5.5112378435
2.946452	 -5.5170977563
2.946943	 -5.5229576690
2.947434	 -5.5288175815
2.947924	 -5.5346774939
2.948413	 -5.5405374063
2.948902	 -5.5463973184
2.949390	 -5.5522572306
2.949878	 -5.5581171427
2.950365	 -5.5639770546
2.950851	 -5.5698369665
2.951338	 -5.5756968782
2.951823	 -5.5815567899
2.952308	 -5.5874167015
2.952792	 -5.5932766130
2.953276	 -5.5991365244
2.953760	 -5.6049964356
2.954243	 -5.6108563469
2.954725	 -5.6167162580
2.955207	 -5.6225761690
2.955688	 -5.6284360800
2.956168	 -5.6342959909
2.956649	 -5.6401559016
2.957128	 -5.6460158123
2.957607	 -5.6518757230
2.958086	 -5.6577356335
2.958564	 -5.6635955440
2.959041	 -5.6694554545
2.959518	 -5.6753153648
2.959995	 -5.6811752750
2.960471	 -5.6870351853
2.960946	 -5.6928950953
2.961421	 -5.6987550052
2.961895	 -5.7046149152
2.962369	 -5.7104748252
2.962843	 -5.7163347349
2.963316	 -5.7221946446
2.963788	 -5.7280545543
2.964260	 -5.7339144638
2.964731	 -5.7397743732
2.965202	 -5.7456342827
2.965672	 -5.7514941921
2.966142	 -5.7573541014
2.966611	 -5.7632140106
2.967080	 -5.7690739198
2.967548	 -5.7749338289
2.968016	 -5.7807937379
2.968483	 -5.7866536468
2.968950	 -5.7925135558
2.969416	 -5.7983734647
2.969882	 -5.8042333734
2.970347	 -5.8100932822
2.970812	 -5.8159531911
2.971276	 -5.8218130998
2.971740	 -5.8276730079
2.972203	 -5.8335329167
2.972666	 -5.8393928250
2.973128	 -5.8452527335
2.973590	 -5.8511126418
2.974051	 -5.8569725501
2.974512	 -5.8628324582
2.974972	 -5.8686923665
2.975432	 -5.8745522744
2.975891	 -5.8804121826
2.976350	 -5.8862720906
2.976808	 -5.8921319984
2.977266	 -5.8979919065
2.977724	 -5.9038518143
2.978181	 -5.9097117220
2.978637	 -5.9155716298
2.979093	 -5.9214315377
2.979548	 -5.9272914452
2.980003	 -5.9331513527
2.980458	 -5.9390112603
2.980912	 -5.9448711678
2.981366	 -5.9507310754
2.981819	 -5.9565909828
2.982271	 -5.9624508900
2.982723	 -5.9683107974
2.983175	 -5.9741707047
2.983626	 -5.9800306118
2.984077	 -5.9858905190
2.984527	 -5.9917504260
2.984977	 -5.9976103333
2.985426	 -6.0034702405
2.985875	 -6.0093301474
2.986324	 -6.0151900546
2.986772	 -6.0210499615
2.987219	 -6.0269098683
2.987666	 -6.0327697750
2.988113	 -6.0386296818
2.988559	 -6.0444895886
2.989005	 -6.0503494955
2.989450	 -6.0562094020
2.989895	 -6.0620693087
2.990339	 -6.0679292155
2.990783	 -6.0737891220
2.991226	 -6.0796490284
2.991669	 -6.0855089350
2.992111	 -6.0913688416
2.992554	 -6.0972287481
2.992995	 -6.1030886542
2.993436	 -6.1089485606
2.993877	 -6.1148084669
2.994317	 -6.1206683734
2.994757	 -6.1265282796
2.995196	 -6.1323881857
2.995635	 -6.1382480923
2.996074	 -6.1441079985
2.996512	 -6.1499679044
2.996949	 -6.1558278108
2.997386	 -6.1616877164
2.997823	 -6.1675476226
2.998259	 -6.1734075287
2.998695	 -6.1792674346
2.999131	 -6.1851273404
2.999565	 -6.1909872465
3.000000	 -6.1968471524
3.000434	 -6.2027070581
3.000868	 -6.2085669641
3.001301	 -6.2144268698
3.001734	 -6.2202867758
3.002166	 -6.2261466811
3.002598	 -6.2320065872
3.003029	 -6.2378664926
3.003461	 -6.2437263986
3.003891	 -6.2495863044
3.004321	 -6.2554462100
3.004751	 -6.2613061153
3.005181	 -6.2671660208
3.005609	 -6.2730259264
3.006038	 -6.2788858321
3.006466	 -6.2847457376
3.006894	 -6.2906056427
3.007321	 -6.2964655478
3.007748	 -6.3023254535
3.008174	 -6.3081853590
3.008600	 -6.3140452644
3.009026	 -6.3199051699
3.009451	 -6.3257650755
3.009876	 -6.3316249806
3.010300	 -6.3374848852
3.010724	 -6.3433447907
3.011147	 -6.3492046959
3.011570	 -6.3550646017
3.011993	 -6.3609245065
3.012415	 -6.3667844122
3.012837	 -6.3726443169
3.013259	 -6.3785042214
3.013680	 -6.3843641272
3.014100	 -6.3902240328
3.014521	 -6.3960839371
3.014940	 -6.4019438417
3.015360	 -6.4078037470
3.015779	 -6.4136636518
3.016197	 -6.4195235569
3.016616	 -6.4253834626
3.017033	 -6.4312433667
3.017451	 -6.4371032722
3.017868	 -6.4429631767
3.018284	 -6.4488230822
3.018700	 -6.4546829866
3.019116	 -6.4605428912
3.019532	 -6.4664027964
3.019947	 -6.4722627013
3.020361	 -6.4781226055
3.020775	 -6.4839825105
3.021189	 -6.4898424149
3.021603	 -6.4957023209
3.022016	 -6.5015622254
3.022428	 -6.5074221290
3.022841	 -6.5132820342
3.023252	 -6.5191419397
3.023664	 -6.5250018428
3.024075	 -6.5308617486
3.024486	 -6.5367216526
3.024896	 -6.5425815574
3.025306	 -6.5484414617
3.025715	 -6.5543013665
3.026125	 -6.5601612707
3.026533	 -6.5660211764
3.026942	 -6.5718810810
3.027350	 -6.5777409853
3.027757	 -6.5836008894
3.028164	 -6.5894607923
3.028571	 -6.5953206973
3.028978	 -6.6011806017
3.029384	 -6.6070405082
3.029789	 -6.6129004127
3.030195	 -6.6187603156
3.030600	 -6.6246202198
3.031004	 -6.6304801254
3.031408	 -6.6363400282
3.031812	 -6.6421999331
3.032216	 -6.6480598388
3.032619	 -6.6539197420
3.033021	 -6.6597796471
3.033424	 -6.6656395508
3.033826	 -6.6714994554
3.034227	 -6.6773593598
3.034628	 -6.6832192646
3.035029	 -6.6890791682
3.035430	 -6.6949390728
3.035830	 -6.7007989767
3.036230	 -6.7066588814
3.036629	 -6.7125187853
3.037028	 -6.7183786890
3.037426	 -6.7242385928
3.037825	 -6.7300984981
3.038223	 -6.7359584022
3.038620	 -6.7418183044
3.039017	 -6.7476782106
3.039414	 -6.7535381140
3.039811	 -6.7593980187
3.040207	 -6.7652579235
3.040602	 -6.7711178281
3.040998	 -6.7769777303
3.041393	 -6.7828376353
3.041787	 -6.7886975393
3.042182	 -6.7945574434
3.042576	 -6.8004173471
3.042969	 -6.8062772519
3.043362	 -6.8121371549
3.043755	 -6.8179970579
3.044148	 -6.8238569631
3.044540	 -6.8297168667
3.044932	 -6.8355767700
3.045323	 -6.8414366752
3.045714	 -6.8472965779
3.046105	 -6.8531564826
3.046495	 -6.8590163888
3.046885	 -6.8648762918
3.047275	 -6.8707361928
3.047664	 -6.8765960980
3.048053	 -6.8824560048
3.048442	 -6.8883159080
3.048830	 -6.8941758112
3.049218	 -6.9000357153
3.049606	 -6.9058956179
3.049993	 -6.9117555232
3.050380	 -6.9176154254
3.050766	 -6.9234753313
3.051153	 -6.9293352342
3.051538	 -6.9351951385
3.051924	 -6.9410550421
3.052309	 -6.9469149460
3.052694	 -6.9527748481
3.053078	 -6.9586347557
3.053463	 -6.9644946569
3.053846	 -6.9703545616
3.054230	 -6.9762144656
3.054613	 -6.9820743676
3.054996	 -6.9879342724
3.055378	 -6.9937941749
3.055760	 -6.9996540787
3.056142	 -7.0055139860
3.056524	 -7.0113738880
3.056905	 -7.0172337900
3.057286	 -7.0230936946
3.057666	 -7.0289536010
3.058046	 -7.0348135010
3.058426	 -7.0406734069
3.058805	 -7.0465333111
3.059185	 -7.0523932117
3.059563	 -7.0582531156
3.059942	 -7.0641130208
3.060320	 -7.0699729262
3.060698	 -7.0758328279
3.061075	 -7.0816927314
3.061452	 -7.0875526358
3.061829	 -7.0934125398
3.062206	 -7.0992724433
3.062582	 -7.1051323499
3.062958	 -7.1109922514
3.063333	 -7.1168521545
3.063709	 -7.1227120554
3.064083	 -7.1285719594
3.064458	 -7.1344318635
3.064832	 -7.1402917711
3.065206	 -7.1461516731
3.065580	 -7.1520115776
3.065953	 -7.1578714818
3.066326	 -7.1637313840
3.066699	 -7.1695912884
3.067071	 -7.1754511922
3.067443	 -7.1813110962
3.067815	 -7.1871709953
3.068186	 -7.1930309021
3.068557	 -7.1988908026
3.068928	 -7.2047507082
3.069298	 -7.2106106112
3.069668	 -7.2164705132
3.070038	 -7.2223304198
3.070407	 -7.2281903228
3.070776	 -7.2340502265
3.071145	 -7.2399101271
3.071514	 -7.2457700336
3.071882	 -7.2516299402
3.072250	 -7.2574898408
3.072617	 -7.2633497454
3.072985	 -7.2692096482
3.073352	 -7.2750695539
3.073718	 -7.2809294555
3.074085	 -7.2867893634
3.074451	 -7.2926492631
3.074816	 -7.2985091676
3.075182	 -7.3043690715
3.075547	 -7.3102289741
3.075912	 -7.3160888755
3.076276	 -7.3219487775
3.076640	 -7.3278086800
3.077004	 -7.3336685881
3.077368	 -7.3395284921
3.077731	 -7.3453883970
3.078094	 -7.3512482939
3.078457	 -7.3571081968
3.078819	 -7.3629681002
3.079181	 -7.3688280069
3.079543	 -7.3746879117
3.079904	 -7.3805478225
3.080266	 -7.3864077118
3.080626	 -7.3922676243
3.080987	 -7.3981275278
3.081347	 -7.4039874332
3.081707	 -7.4098473344
3.082067	 -7.4157072356
3.082426	 -7.4215671394
3.082785	 -7.4274270435
3.083144	 -7.4332869460
3.083503	 -7.4391468526
3.083861	 -7.4450067545
3.084219	 -7.4508666587
3.084576	 -7.4567265688
3.084934	 -7.4625864637
3.085291	 -7.4684463755
3.085647	 -7.4743062645
3.086004	 -7.4801661733
3.086360	 -7.4860260789
3.086716	 -7.4918859775
3.087071	 -7.4977458835
3.087426	 -7.5036057888
3.087781	 -7.5094656858
3.088136	 -7.5153255946
3.088490	 -7.5211854955
3.088845	 -7.5270454017
3.089198	 -7.5329053085
3.089552	 -7.5387651962
3.089905	 -7.5446251156
3.090258	 -7.5504850147
3.090611	 -7.5563449137
3.090963	 -7.5622048248
3.091315	 -7.5680647303
3.091667	 -7.5739246304
3.092018	 -7.5797845316
3.092370	 -7.5856444397
3.092721	 -7.5915043387
3.093071	 -7.5973642385
3.093422	 -7.6032241395
3.093772	 -7.6090840428
3.094122	 -7.6149439640
3.094471	 -7.6208038520
3.094820	 -7.6266637667
3.095169	 -7.6325236675
3.095518	 -7.6383835681
3.095866	 -7.6442434578
3.096215	 -7.6501033695
3.096562	 -7.6559632660