Variables= "X","Y","PHI"
zone T= "BLOCK1", I=31, J=21, F=Point

0.000000 	 0.000000 	 0.000000 
0.200000 	 0.000000 	 0.000000 
0.400000 	 0.000000 	 0.000000 
0.600000 	 0.000000 	 0.000000 
0.800000 	 0.000000 	 0.000000 
1.000000 	 0.000000 	 0.000000 
1.200000 	 0.000000 	 100.000000 
1.400000 	 0.000000 	 100.000000 
1.600000 	 0.000000 	 100.000000 
1.800000 	 0.000000 	 100.000000 
2.000000 	 0.000000 	 100.000000 
2.200000 	 0.000000 	 100.000000 
2.400000 	 0.000000 	 100.000000 
2.600000 	 0.000000 	 100.000000 
2.800000 	 0.000000 	 100.000000 
3.000000 	 0.000000 	 100.000000 
3.200000 	 0.000000 	 100.000000 
3.400000 	 0.000000 	 100.000000 
3.600000 	 0.000000 	 100.000000 
3.800000 	 0.000000 	 100.000000 
4.000000 	 0.000000 	 100.000000 
4.200000 	 0.000000 	 100.000000 
4.400000 	 0.000000 	 100.000000 
4.600000 	 0.000000 	 100.000000 
4.800000 	 0.000000 	 100.000000 
5.000000 	 0.000000 	 100.000000 
5.200000 	 0.000000 	 100.000000 
5.400000 	 0.000000 	 100.000000 
5.600000 	 0.000000 	 100.000000 
5.800000 	 0.000000 	 100.000000 
6.000000 	 0.000000 	 100.000000 
0.000000 	 0.200000 	 0.000000 
0.200000 	 0.200000 	 1.983029 
0.400000 	 0.200000 	 4.395665 
0.600000 	 0.200000 	 7.955481 
0.800000 	 0.200000 	 14.324115 
1.000000 	 0.200000 	 28.178704 
1.200000 	 0.200000 	 64.655893 
1.400000 	 0.200000 	 78.416834 
1.600000 	 0.200000 	 84.588298 
1.800000 	 0.200000 	 87.825064 
2.000000 	 0.200000 	 89.747380 
2.200000 	 0.200000 	 90.998056 
2.400000 	 0.200000 	 91.866360 
2.600000 	 0.200000 	 92.497805 
2.800000 	 0.200000 	 92.972719 
3.000000 	 0.200000 	 93.338903 
3.200000 	 0.200000 	 93.626565 
3.400000 	 0.200000 	 93.855742 
3.600000 	 0.200000 	 94.040249 
3.800000 	 0.200000 	 94.189922 
4.000000 	 0.200000 	 94.311942 
4.200000 	 0.200000 	 94.411663 
4.400000 	 0.200000 	 94.493139 
4.600000 	 0.200000 	 94.559477 
4.800000 	 0.200000 	 94.613071 
5.000000 	 0.200000 	 94.655774 
5.200000 	 0.200000 	 94.689006 
5.400000 	 0.200000 	 94.713842 
5.600000 	 0.200000 	 94.731065 
5.800000 	 0.200000 	 94.741212 
6.000000 	 0.200000 	 94.744595 
0.000000 	 0.400000 	 0.000000 
0.200000 	 0.400000 	 3.536451 
0.400000 	 0.400000 	 7.644151 
0.600000 	 0.400000 	 13.102143 
0.800000 	 0.400000 	 21.162274 
1.000000 	 0.400000 	 33.734807 
1.200000 	 0.400000 	 52.028033 
1.400000 	 0.400000 	 64.423147 
1.600000 	 0.400000 	 72.111294 
1.800000 	 0.400000 	 76.964577 
2.000000 	 0.400000 	 80.166399 
2.200000 	 0.400000 	 82.378485 
2.400000 	 0.400000 	 83.969578 
2.600000 	 0.400000 	 85.152141 
2.800000 	 0.400000 	 86.054168 
3.000000 	 0.400000 	 86.756327 
3.200000 	 0.400000 	 87.311616 
3.400000 	 0.400000 	 87.756152 
3.600000 	 0.400000 	 88.115332 
3.800000 	 0.400000 	 88.407497 
4.000000 	 0.400000 	 88.646184 
4.200000 	 0.400000 	 88.841571 
4.400000 	 0.400000 	 89.001417 
4.600000 	 0.400000 	 89.131696 
4.800000 	 0.400000 	 89.237035 
5.000000 	 0.400000 	 89.321019 
5.200000 	 0.400000 	 89.386409 
5.400000 	 0.400000 	 89.435296 
5.600000 	 0.400000 	 89.469208 
5.800000 	 0.400000 	 89.489189 
6.000000 	 0.400000 	 89.495849 
0.000000 	 0.600000 	 0.000000 
0.200000 	 0.600000 	 4.518623 
0.400000 	 0.600000 	 9.542345 
0.600000 	 0.600000 	 15.646665 
0.800000 	 0.600000 	 23.488032 
1.000000 	 0.600000 	 33.570217 
1.200000 	 0.600000 	 45.298287 
1.400000 	 0.600000 	 55.136425 
1.600000 	 0.600000 	 62.469153 
1.800000 	 0.600000 	 67.755552 
2.000000 	 0.600000 	 71.575154 
2.200000 	 0.600000 	 74.379909 
2.400000 	 0.600000 	 76.481325 
2.600000 	 0.600000 	 78.087013 
2.800000 	 0.600000 	 79.335486 
3.000000 	 0.600000 	 80.320621 
3.200000 	 0.600000 	 81.107420 
3.400000 	 0.600000 	 81.741919 
3.600000 	 0.600000 	 82.257432 
3.800000 	 0.600000 	 82.678548 
4.000000 	 0.600000 	 83.023725 
4.200000 	 0.600000 	 83.307021 
4.400000 	 0.600000 	 83.539263 
4.600000 	 0.600000 	 83.728856 
4.800000 	 0.600000 	 83.882353 
5.000000 	 0.600000 	 84.004858 
5.200000 	 0.600000 	 84.100316 
5.400000 	 0.600000 	 84.171725 
5.600000 	 0.600000 	 84.221280 
5.800000 	 0.600000 	 84.250487 
6.000000 	 0.600000 	 84.260222 
0.000000 	 0.800000 	 0.000000 
0.200000 	 0.800000 	 4.995697 
0.400000 	 0.800000 	 10.359940 
0.600000 	 0.800000 	 16.454141 
0.800000 	 0.800000 	 23.572972 
1.000000 	 0.800000 	 31.759743 
1.200000 	 0.800000 	 40.458471 
1.400000 	 0.800000 	 48.355115 
1.600000 	 0.800000 	 54.873343 
1.800000 	 0.800000 	 60.013322 
2.000000 	 0.800000 	 63.998756 
2.200000 	 0.800000 	 67.084670 
2.400000 	 0.800000 	 69.488801 
2.600000 	 0.800000 	 71.379102 
2.800000 	 0.800000 	 72.880141 
3.000000 	 0.800000 	 74.083250 
3.200000 	 0.800000 	 75.055524 
3.400000 	 0.800000 	 75.846670 
3.600000 	 0.800000 	 76.493929 
3.800000 	 0.800000 	 77.025538 
4.000000 	 0.800000 	 77.463148 
4.200000 	 0.800000 	 77.823525 
4.400000 	 0.800000 	 78.119756 
4.600000 	 0.800000 	 78.362111 
4.800000 	 0.800000 	 78.558663 
5.000000 	 0.800000 	 78.715744 
5.200000 	 0.800000 	 78.838273 
5.400000 	 0.800000 	 78.930006 
5.600000 	 0.800000 	 78.993702 
5.800000 	 0.800000 	 79.031255 
6.000000 	 0.800000 	 79.043773 
0.000000 	 1.000000 	 0.000000 
0.200000 	 1.000000 	 5.104226 
0.400000 	 1.000000 	 10.447576 
0.600000 	 1.000000 	 16.236987 
0.800000 	 1.000000 	 22.589974 
1.000000 	 1.000000 	 29.437310 
1.200000 	 1.000000 	 36.420740 
1.400000 	 1.000000 	 42.952219 
1.600000 	 1.000000 	 48.655782 
1.800000 	 1.000000 	 53.425637 
2.000000 	 1.000000 	 57.321879 
2.200000 	 1.000000 	 60.471215 
2.400000 	 1.000000 	 63.010107 
2.600000 	 1.000000 	 65.060451 
2.800000 	 1.000000 	 66.722725 
3.000000 	 1.000000 	 68.076715 
3.200000 	 1.000000 	 69.184757 
3.400000 	 1.000000 	 70.095309 
3.600000 	 1.000000 	 70.846077 
3.800000 	 1.000000 	 71.466528 
4.000000 	 1.000000 	 71.979803 
4.200000 	 1.000000 	 72.404174 
4.400000 	 1.000000 	 72.754127 
4.600000 	 1.000000 	 73.041170 
4.800000 	 1.000000 	 73.274445 
5.000000 	 1.000000 	 73.461180 
5.200000 	 1.000000 	 73.607028 
5.400000 	 1.000000 	 73.716323 
5.600000 	 1.000000 	 73.792267 
5.800000 	 1.000000 	 73.837060 
6.000000 	 1.000000 	 73.851990 
0.000000 	 1.200000 	 0.000000 
0.200000 	 1.200000 	 4.973632 
0.400000 	 1.200000 	 10.089151 
0.600000 	 1.200000 	 15.456259 
0.800000 	 1.200000 	 21.112624 
1.000000 	 1.200000 	 26.978784 
1.200000 	 1.200000 	 32.834959 
1.400000 	 1.200000 	 38.377241 
1.600000 	 1.200000 	 43.371928 
1.800000 	 1.200000 	 47.711566 
2.000000 	 1.200000 	 51.391908 
2.200000 	 1.200000 	 54.468203 
2.400000 	 1.200000 	 57.019963 
2.600000 	 1.200000 	 59.129870 
2.800000 	 1.200000 	 60.873592 
3.000000 	 1.200000 	 62.316129 
3.200000 	 1.200000 	 63.511482 
3.400000 	 1.200000 	 64.503729 
3.600000 	 1.200000 	 65.328543 
3.800000 	 1.200000 	 66.014693 
4.000000 	 1.200000 	 66.585362 
4.200000 	 1.200000 	 67.059243 
4.400000 	 1.200000 	 67.451406 
4.600000 	 1.200000 	 67.773996 
4.800000 	 1.200000 	 68.036767 
5.000000 	 1.200000 	 68.247502 
5.200000 	 1.200000 	 68.412335 
5.400000 	 1.200000 	 68.535993 
5.600000 	 1.200000 	 68.621983 
5.800000 	 1.200000 	 68.672726 
6.000000 	 1.200000 	 68.689640 
0.000000 	 1.400000 	 0.000000 
0.200000 	 1.400000 	 4.701149 
0.400000 	 1.400000 	 9.479139 
0.600000 	 1.400000 	 14.386271 
0.800000 	 1.400000 	 19.425481 
1.000000 	 1.400000 	 24.530244 
1.200000 	 1.400000 	 29.563071 
1.400000 	 1.400000 	 34.349859 
1.600000 	 1.400000 	 38.743121 
1.800000 	 1.400000 	 42.656790 
2.000000 	 1.400000 	 46.065986 
2.200000 	 1.400000 	 48.989724 
2.400000 	 1.400000 	 51.471671 
2.600000 	 1.400000 	 53.565476 
2.800000 	 1.400000 	 55.325644 
3.000000 	 1.400000 	 56.802726 
3.200000 	 1.400000 	 58.041311 
3.400000 	 1.400000 	 59.079583 
3.600000 	 1.400000 	 59.949673 
3.800000 	 1.400000 	 60.678338 
4.000000 	 1.400000 	 61.287711 
4.200000 	 1.400000 	 61.796028 
4.400000 	 1.400000 	 62.218259 
4.600000 	 1.400000 	 62.566641 
4.800000 	 1.400000 	 62.851126 
5.000000 	 1.400000 	 63.079728 
5.200000 	 1.400000 	 63.258816 
5.400000 	 1.400000 	 63.393329 
5.600000 	 1.400000 	 63.486948 
5.800000 	 1.400000 	 63.542220 
6.000000 	 1.400000 	 63.560644 
0.000000 	 1.600000 	 0.000000 
0.200000 	 1.600000 	 4.351823 
0.400000 	 1.600000 	 8.739987 
0.600000 	 1.600000 	 13.184204 
0.800000 	 1.600000 	 17.672787 
1.000000 	 1.600000 	 22.153638 
1.200000 	 1.600000 	 26.537222 
1.400000 	 1.600000 	 30.716001 
1.600000 	 1.600000 	 34.593909 
1.800000 	 1.600000 	 38.106488 
2.000000 	 1.600000 	 41.225522 
2.200000 	 1.600000 	 43.953037 
2.400000 	 1.600000 	 46.311520 
2.600000 	 1.600000 	 48.334720 
2.800000 	 1.600000 	 50.060781 
3.000000 	 1.600000 	 51.527822 
3.200000 	 1.600000 	 52.771454 
3.400000 	 1.600000 	 53.823618 
3.600000 	 1.600000 	 54.712230 
3.800000 	 1.600000 	 55.461274 
4.000000 	 1.600000 	 56.091115 
4.200000 	 1.600000 	 56.618900 
4.400000 	 1.600000 	 57.058959 
4.600000 	 1.600000 	 57.423185 
4.800000 	 1.600000 	 57.721366 
5.000000 	 1.600000 	 57.961469 
5.200000 	 1.600000 	 58.149873 
5.400000 	 1.600000 	 58.291559 
5.600000 	 1.600000 	 58.390259 
5.800000 	 1.600000 	 58.448562 
6.000000 	 1.600000 	 58.467997 
0.000000 	 1.800000 	 0.000000 
0.200000 	 1.800000 	 3.966157 
0.400000 	 1.800000 	 7.944782 
0.600000 	 1.800000 	 11.937770 
0.800000 	 1.800000 	 15.927825 
1.000000 	 1.800000 	 19.874299 
1.200000 	 1.800000 	 23.716177 
1.400000 	 1.800000 	 27.383017 
1.600000 	 1.800000 	 30.810024 
1.800000 	 1.800000 	 33.949732 
2.000000 	 1.800000 	 36.776575 
2.200000 	 1.800000 	 39.285383 
2.400000 	 1.800000 	 41.486652 
2.600000 	 1.800000 	 43.401102 
2.800000 	 1.800000 	 45.054937 
3.000000 	 1.800000 	 46.476326 
3.200000 	 1.800000 	 47.693065 
3.400000 	 1.800000 	 48.731206 
3.600000 	 1.800000 	 49.614355 
3.800000 	 1.800000 	 50.363411 
4.000000 	 1.800000 	 50.996576 
4.200000 	 1.800000 	 51.529499 
4.400000 	 1.800000 	 51.975493 
4.600000 	 1.800000 	 52.345774 
4.800000 	 1.800000 	 52.649684 
5.000000 	 1.800000 	 52.894908 
5.200000 	 1.800000 	 53.087647 
5.400000 	 1.800000 	 53.232777 
5.600000 	 1.800000 	 53.333966 
5.800000 	 1.800000 	 53.393773 
6.000000 	 1.800000 	 53.413709 
0.000000 	 2.000000 	 0.000000 
0.200000 	 2.000000 	 3.568022 
0.400000 	 2.000000 	 7.135213 
0.600000 	 2.000000 	 10.694271 
0.800000 	 2.000000 	 14.226445 
1.000000 	 2.000000 	 17.699555 
1.200000 	 2.000000 	 21.070171 
1.400000 	 2.000000 	 24.289864 
1.600000 	 2.000000 	 27.313439 
1.800000 	 2.000000 	 30.105840 
2.000000 	 2.000000 	 32.645664 
2.200000 	 2.000000 	 34.925268 
2.400000 	 2.000000 	 36.948604 
2.600000 	 2.000000 	 38.728098 
2.800000 	 2.000000 	 40.281541 
3.000000 	 2.000000 	 41.629479 
3.200000 	 2.000000 	 42.793274 
3.400000 	 2.000000 	 43.793787 
3.600000 	 2.000000 	 44.650572 
3.800000 	 2.000000 	 45.381441 
4.000000 	 2.000000 	 46.002279 
4.200000 	 2.000000 	 46.527025 
4.400000 	 2.000000 	 46.967741 
4.600000 	 2.000000 	 47.334732 
4.800000 	 2.000000 	 47.636690 
5.000000 	 2.000000 	 47.880832 
5.200000 	 2.000000 	 48.073031 
5.400000 	 2.000000 	 48.217934 
5.600000 	 2.000000 	 48.319056 
5.800000 	 2.000000 	 48.378856 
6.000000 	 2.000000 	 48.398790 
0.000000 	 2.200000 	 0.000000 
0.200000 	 2.200000 	 3.170718 
0.400000 	 2.200000 	 6.333776 
0.600000 	 2.200000 	 9.477655 
0.800000 	 2.200000 	 12.584128 
1.000000 	 2.200000 	 15.627306 
1.200000 	 2.200000 	 18.575089 
1.400000 	 2.200000 	 21.392828 
1.600000 	 2.200000 	 24.048028 
1.800000 	 2.200000 	 26.514525 
2.000000 	 2.200000 	 28.774973 
2.200000 	 2.200000 	 30.821422 
2.400000 	 2.200000 	 32.654396 
2.600000 	 2.200000 	 34.281145 
2.800000 	 2.200000 	 35.713649 
3.000000 	 2.200000 	 36.966776 
3.200000 	 2.200000 	 38.056766 
3.400000 	 2.200000 	 39.000096 
3.600000 	 2.200000 	 39.812705 
3.800000 	 2.200000 	 40.509501 
4.000000 	 2.200000 	 41.104075 
4.200000 	 2.200000 	 41.608583 
4.400000 	 2.200000 	 42.033713 
4.600000 	 2.200000 	 42.388724 
4.800000 	 2.200000 	 42.681512 
5.000000 	 2.200000 	 42.918698 
5.200000 	 2.200000 	 43.105710 
5.400000 	 2.200000 	 43.246872 
5.600000 	 2.200000 	 43.345469 
5.800000 	 2.200000 	 43.403806 
6.000000 	 2.200000 	 43.423251 
0.000000 	 2.400000 	 0.000000 
0.200000 	 2.400000 	 2.781075 
0.400000 	 2.400000 	 5.551518 
0.600000 	 2.400000 	 8.298445 
0.800000 	 2.400000 	 11.005109 
1.000000 	 2.400000 	 13.650449 
1.200000 	 2.400000 	 16.210052 
1.400000 	 2.400000 	 18.658330 
1.600000 	 2.400000 	 20.971321 
1.800000 	 2.400000 	 23.129259 
2.000000 	 2.400000 	 25.118281 
2.200000 	 2.400000 	 26.931051 
2.400000 	 2.400000 	 28.566415 
2.600000 	 2.400000 	 30.028436 
2.800000 	 2.400000 	 31.325134 
3.000000 	 2.400000 	 32.467212 
3.200000 	 2.400000 	 33.466916 
3.400000 	 2.400000 	 34.337124 
3.600000 	 2.400000 	 35.090653 
3.800000 	 2.400000 	 35.739781 
4.000000 	 2.400000 	 36.295937 
4.200000 	 2.400000 	 36.769517 
4.400000 	 2.400000 	 37.169805 
4.600000 	 2.400000 	 37.504939 
4.800000 	 2.400000 	 37.781938 
5.000000 	 2.400000 	 38.006737 
5.200000 	 2.400000 	 38.184241 
5.400000 	 2.400000 	 38.318376 
5.600000 	 2.400000 	 38.412141 
5.800000 	 2.400000 	 38.467646 
6.000000 	 2.400000 	 38.486148 
0.000000 	 2.600000 	 0.000000 
0.200000 	 2.600000 	 2.402065 
0.400000 	 2.600000 	 4.792777 
0.600000 	 2.600000 	 7.159498 
0.800000 	 2.600000 	 9.487411 
1.000000 	 2.600000 	 11.759332 
1.200000 	 2.600000 	 13.956339 
1.400000 	 2.600000 	 16.059119 
1.600000 	 2.600000 	 18.049668 
1.800000 	 2.600000 	 19.912907 
2.000000 	 2.600000 	 21.637843 
2.200000 	 2.600000 	 23.218086 
2.400000 	 2.600000 	 24.651777 
2.600000 	 2.600000 	 25.941049 
2.800000 	 2.600000 	 27.091240 
3.000000 	 2.600000 	 28.110020 
3.200000 	 2.600000 	 29.006564 
3.400000 	 2.600000 	 29.790832 
3.600000 	 2.600000 	 30.473002 
3.800000 	 2.600000 	 31.063035 
4.000000 	 2.600000 	 31.570373 
4.200000 	 2.600000 	 32.003746 
4.400000 	 2.600000 	 32.371049 
4.600000 	 2.600000 	 32.679289 
4.800000 	 2.600000 	 32.934563 
5.000000 	 2.600000 	 33.142071 
5.200000 	 2.600000 	 33.306139 
5.400000 	 2.600000 	 33.430250 
5.600000 	 2.600000 	 33.517072 
5.800000 	 2.600000 	 33.568491 
6.000000 	 2.600000 	 33.585631 
0.000000 	 2.800000 	 0.000000 
0.200000 	 2.800000 	 2.034406 
0.400000 	 2.800000 	 4.058026 
0.600000 	 2.800000 	 6.059358 
0.800000 	 2.800000 	 8.025707 
1.000000 	 2.800000 	 9.943128 
1.200000 	 2.800000 	 11.796854 
1.400000 	 2.800000 	 13.572139 
1.600000 	 2.800000 	 15.255324 
1.800000 	 2.800000 	 16.834860 
2.000000 	 2.800000 	 18.302095 
2.200000 	 2.800000 	 19.651673 
2.400000 	 2.800000 	 20.881558 
2.600000 	 2.800000 	 21.992744 
2.800000 	 2.800000 	 22.988756 
3.000000 	 2.800000 	 23.875065 
3.200000 	 2.800000 	 24.658486 
3.400000 	 2.800000 	 25.346639 
3.600000 	 2.800000 	 25.947489 
3.800000 	 2.800000 	 26.468982 
4.000000 	 2.800000 	 26.918775 
4.200000 	 2.800000 	 27.304044 
4.400000 	 2.800000 	 27.631358 
4.600000 	 2.800000 	 27.906604 
4.800000 	 2.800000 	 28.134953 
5.000000 	 2.800000 	 28.320845 
5.200000 	 2.800000 	 28.467996 
5.400000 	 2.800000 	 28.579412 
5.600000 	 2.800000 	 28.657406 
5.800000 	 2.800000 	 28.703615 
6.000000 	 2.800000 	 28.719019 
0.000000 	 3.000000 	 0.000000 
0.200000 	 3.000000 	 1.677534 
0.400000 	 3.000000 	 3.345564 
0.600000 	 3.000000 	 4.994201 
0.800000 	 3.000000 	 6.612931 
1.000000 	 3.000000 	 8.190619 
1.200000 	 3.000000 	 9.715808 
1.400000 	 3.000000 	 11.177261 
1.600000 	 3.000000 	 12.564627 
1.800000 	 3.000000 	 13.869115 
2.000000 	 3.000000 	 15.084006 
2.200000 	 3.000000 	 16.204953 
2.400000 	 3.000000 	 17.230039 
2.600000 	 3.000000 	 18.159612 
2.800000 	 3.000000 	 18.995976 
3.000000 	 3.000000 	 19.742998 
3.200000 	 3.000000 	 20.405676 
3.400000 	 3.000000 	 20.989749 
3.600000 	 3.000000 	 21.501332 
3.800000 	 3.000000 	 21.946629 
4.000000 	 3.000000 	 22.331702 
4.200000 	 3.000000 	 22.662297 
4.400000 	 3.000000 	 22.943733 
4.600000 	 3.000000 	 23.180817 
4.800000 	 3.000000 	 23.377801 
5.000000 	 3.000000 	 23.538361 
5.200000 	 3.000000 	 23.665589 
5.400000 	 3.000000 	 23.761997 
5.600000 	 3.000000 	 23.829524 
5.800000 	 3.000000 	 23.869546 
6.000000 	 3.000000 	 23.882887 
0.000000 	 3.200000 	 0.000000 
0.200000 	 3.200000 	 1.330166 
0.400000 	 3.200000 	 2.652494 
0.600000 	 3.200000 	 3.958952 
0.800000 	 3.200000 	 5.241196 
1.000000 	 3.200000 	 6.490608 
1.200000 	 3.200000 	 7.698501 
1.400000 	 3.200000 	 8.856468 
1.600000 	 3.200000 	 9.956810 
1.800000 	 3.200000 	 10.992967 
2.000000 	 3.200000 	 11.959859 
2.200000 	 3.200000 	 12.854095 
2.400000 	 3.200000 	 13.674032 
2.600000 	 3.200000 	 14.419687 
2.800000 	 3.200000 	 15.092540 
3.000000 	 3.200000 	 15.695273 
3.200000 	 3.200000 	 16.231473 
3.400000 	 3.200000 	 16.705349 
3.600000 	 3.200000 	 17.121461 
3.800000 	 3.200000 	 17.484502 
4.000000 	 3.200000 	 17.799105 
4.200000 	 3.200000 	 18.069711 
4.400000 	 3.200000 	 18.300461 
4.600000 	 3.200000 	 18.495129 
4.800000 	 3.200000 	 18.657072 
5.000000 	 3.200000 	 18.789208 
5.200000 	 3.200000 	 18.894002 
5.400000 	 3.200000 	 18.973462 
5.600000 	 3.200000 	 19.029146 
5.800000 	 3.200000 	 19.062159 
6.000000 	 3.200000 	 19.073163 
0.000000 	 3.400000 	 0.000000 
0.200000 	 3.400000 	 0.990634 
0.400000 	 3.400000 	 1.975296 
0.600000 	 3.400000 	 2.947918 
0.800000 	 3.400000 	 3.902293 
1.000000 	 3.400000 	 4.832116 
1.200000 	 3.400000 	 5.731120 
1.400000 	 3.400000 	 6.593298 
1.600000 	 3.400000 	 7.413178 
1.800000 	 3.400000 	 8.186085 
2.000000 	 3.400000 	 8.908367 
2.200000 	 3.400000 	 9.577536 
2.400000 	 3.400000 	 10.192308 
2.600000 	 3.400000 	 10.752565 
2.800000 	 3.400000 	 11.259225 
3.000000 	 3.400000 	 11.714079 
3.200000 	 3.400000 	 12.119594 
3.400000 	 3.400000 	 12.478711 
3.600000 	 3.400000 	 12.794663 
3.800000 	 3.400000 	 13.070811 
4.000000 	 3.400000 	 13.310505 
4.200000 	 3.400000 	 13.516979 
4.400000 	 3.400000 	 13.693272 
4.600000 	 3.400000 	 13.842166 
4.800000 	 3.400000 	 13.966151 
5.000000 	 3.400000 	 14.067398 
5.200000 	 3.400000 	 14.147747 
5.400000 	 3.400000 	 14.208705 
5.600000 	 3.400000 	 14.251438 
5.800000 	 3.400000 	 14.276780 
6.000000 	 3.400000 	 14.285227 
0.000000 	 3.600000 	 0.000000 
0.200000 	 3.600000 	 0.657075 
0.400000 	 3.600000 	 1.310137 
0.600000 	 3.600000 	 1.955129 
0.800000 	 3.600000 	 2.587942 
1.000000 	 3.600000 	 3.204444 
1.200000 	 3.600000 	 3.800563 
1.400000 	 3.600000 	 4.372428 
1.600000 	 3.600000 	 4.916519 
1.800000 	 3.600000 	 5.429827 
2.000000 	 3.600000 	 5.909989 
2.200000 	 3.600000 	 6.355372 
2.400000 	 3.600000 	 6.765101 
2.600000 	 3.600000 	 7.139039 
2.800000 	 3.600000 	 7.477715 
3.000000 	 3.600000 	 7.782226 
3.200000 	 3.600000 	 8.054113 
3.400000 	 3.600000 	 8.295238 
3.600000 	 3.600000 	 8.507670 
3.800000 	 3.600000 	 8.693574 
4.000000 	 3.600000 	 8.855124 
4.200000 	 3.600000 	 8.994429 
4.400000 	 3.600000 	 9.113482 
4.600000 	 3.600000 	 9.214113 
4.800000 	 3.600000 	 9.297968 
5.000000 	 3.600000 	 9.366484 
5.200000 	 3.600000 	 9.420885 
5.400000 	 3.600000 	 9.462172 
5.600000 	 3.600000 	 9.491124 
5.800000 	 3.600000 	 9.508295 
6.000000 	 3.600000 	 9.514019 
0.000000 	 3.800000 	 0.000000 
0.200000 	 3.800000 	 0.327531 
0.400000 	 3.800000 	 0.653047 
0.600000 	 3.800000 	 0.974520 
0.800000 	 3.800000 	 1.289904 
1.000000 	 3.800000 	 1.597152 
1.200000 	 3.800000 	 1.894262 
1.400000 	 3.800000 	 2.179333 
1.600000 	 3.800000 	 2.450642 
1.800000 	 3.800000 	 2.706715 
2.000000 	 3.800000 	 2.946392 
2.200000 	 3.800000 	 3.168862 
2.400000 	 3.800000 	 3.373684 
2.600000 	 3.800000 	 3.560774 
2.800000 	 3.800000 	 3.730372 
3.000000 	 3.800000 	 3.882998 
3.200000 	 3.800000 	 4.019392 
3.400000 	 3.800000 	 4.140459 
3.600000 	 3.800000 	 4.247205 
3.800000 	 3.800000 	 4.340692 
4.000000 	 3.800000 	 4.421987 
4.200000 	 3.800000 	 4.492132 
4.400000 	 3.800000 	 4.552113 
4.600000 	 3.800000 	 4.602837 
4.800000 	 3.800000 	 4.645123 
5.000000 	 3.800000 	 4.679686 
5.200000 	 3.800000 	 4.707136 
5.400000 	 3.800000 	 4.727974 
5.600000 	 3.800000 	 4.742589 
5.800000 	 3.800000 	 4.751258 
6.000000 	 3.800000 	 4.754147 
0.000000 	 4.000000 	 0.000000 
0.200000 	 4.000000 	 0.000000 
0.400000 	 4.000000 	 0.000000 
0.600000 	 4.000000 	 0.000000 
0.800000 	 4.000000 	 0.000000 
1.000000 	 4.000000 	 0.000000 
1.200000 	 4.000000 	 0.000000 
1.400000 	 4.000000 	 0.000000 
1.600000 	 4.000000 	 0.000000 
1.800000 	 4.000000 	 0.000000 
2.000000 	 4.000000 	 0.000000 
2.200000 	 4.000000 	 0.000000 
2.400000 	 4.000000 	 0.000000 
2.600000 	 4.000000 	 0.000000 
2.800000 	 4.000000 	 0.000000 
3.000000 	 4.000000 	 0.000000 
3.200000 	 4.000000 	 0.000000 
3.400000 	 4.000000 	 0.000000 
3.600000 	 4.000000 	 0.000000 
3.800000 	 4.000000 	 0.000000 
4.000000 	 4.000000 	 0.000000 
4.200000 	 4.000000 	 0.000000 
4.400000 	 4.000000 	 0.000000 
4.600000 	 4.000000 	 0.000000 
4.800000 	 4.000000 	 0.000000 
5.000000 	 4.000000 	 0.000000 
5.200000 	 4.000000 	 0.000000 
5.400000 	 4.000000 	 0.000000 
5.600000 	 4.000000 	 0.000000 
5.800000 	 4.000000 	 0.000000 
6.000000 	 4.000000 	 0.000000 
