Variables= "X","Y"
zone T= "BLOCK1", I=10, J=10

0.000000	 1.0683316345
0.301030	 0.6375677128
0.477121	 0.4589895851
0.602060	 0.3455984451
0.698970	 0.2621353379
0.778151	 0.1958807607
0.845098	 0.1408167910
0.903090	 0.0936194393
0.954243	 0.0522572516
1.000000	 0.0153963077
1.041393	 -0.0178878726
1.079181	 -0.0482637385
1.113943	 -0.0762314932
1.146128	 -0.1021762283
1.176091	 -0.1264015666
1.204120	 -0.1491517640
1.230449	 -0.1706266897
1.255273	 -0.1909922543
1.278754	 -0.2103878482
1.301030	 -0.2289317628
1.322219	 -0.2467252250
1.342423	 -0.2638554585
1.361728	 -0.2803980495
1.380211	 -0.2964188068
1.397940	 -0.3119752490
1.414973	 -0.3271178109
1.431364	 -0.3418908348
1.447158	 -0.3563333957
1.462398	 -0.3704799946
1.477121	 -0.3843611464
1.491362	 -0.3980038819
1.505150	 -0.4114321792
1.518514	 -0.4246673361
1.531479	 -0.4377282932
1.544068	 -0.4506319149
1.556303	 -0.4633932346
1.568202	 -0.4760256688
1.579784	 -0.4885412052
1.591065	 -0.5009505669
1.602060	 -0.5132633573
1.612784	 -0.5254881872
1.623249	 -0.5376327866
1.633468	 -0.5497041035
1.643453	 -0.5617083904
1.653213	 -0.5736512814
1.662758	 -0.5855378594
1.672098	 -0.5973727163
1.681241	 -0.6091600057
1.690196	 -0.6209034895
1.698970	 -0.6326065795
1.707570	 -0.6442723741
1.716003	 -0.6559036905
1.724276	 -0.6675030941
1.732394	 -0.6790729236
1.740363	 -0.6906153141
1.748188	 -0.7021322175
1.755875	 -0.7136254202
1.763428	 -0.7250965592
1.770852	 -0.7365471369
1.778151	 -0.7479785336
1.785330	 -0.7593920190
1.792392	 -0.7707887623
1.799341	 -0.7821698419
1.806180	 -0.7935362532
1.812913	 -0.8048889161
1.819544	 -0.8162286817
1.826075	 -0.8275563384
1.832509	 -0.8388726172
1.838849	 -0.8501781964
1.845098	 -0.8614737064
1.851258	 -0.8727597333
1.857332	 -0.8840368228
1.863323	 -0.8953054831
1.869232	 -0.9065661884
1.875061	 -0.9178193811
1.880814	 -0.9290654745
1.886491	 -0.9403048550
1.892095	 -0.9515378839
1.897627	 -0.9627648998
1.903090	 -0.9739862198
1.908485	 -0.9852021412
1.913814	 -0.9964129430
1.919078	 -1.0076188872
1.924279	 -1.0188202199
1.929419	 -1.0300171725
1.934498	 -1.0412099626
1.939519	 -1.0523987952
1.944483	 -1.0635838633
1.949390	 -1.0747653486
1.954243	 -1.0859434226
1.959041	 -1.0971182471
1.963788	 -1.1082899748
1.968483	 -1.1194587497
1.973128	 -1.1306247082
1.977724	 -1.1417879789
1.982271	 -1.1529486837
1.986772	 -1.1641069378
1.991226	 -1.1752628503
1.995635	 -1.1864165245
2.000000	 -1.1975680581
2.004321	 -1.2087175441
2.008600	 -1.2198650704
2.012837	 -1.2310107204
2.017033	 -1.2421545733
2.021189	 -1.2532967044
2.025306	 -1.2644371851
2.029384	 -1.2755760833
2.033424	 -1.2867134635
2.037426	 -1.2978493872
2.041393	 -1.3089839126
2.045323	 -1.3201170953
2.049218	 -1.3312489883
2.053078	 -1.3423796420
2.056905	 -1.3535091043
2.060698	 -1.3646374211
2.064458	 -1.3757646360
2.068186	 -1.3868907906
2.071882	 -1.3980159247
2.075547	 -1.4091400761
2.079181	 -1.4202632811
2.082785	 -1.4313855742
2.086360	 -1.4425069886
2.089905	 -1.4536275558
2.093422	 -1.4647473060
2.096910	 -1.4758662682
2.100371	 -1.4869844700
2.103804	 -1.4981019379
2.107210	 -1.5092186972
2.110590	 -1.5203347722
2.113943	 -1.5314501863
2.117271	 -1.5425649617
2.120574	 -1.5536791198
2.123852	 -1.5647926811
2.127105	 -1.5759056653
2.130334	 -1.5870180914
2.133539	 -1.5981299774
2.136721	 -1.6092413407
2.139879	 -1.6203521982
2.143015	 -1.6314625660
2.146128	 -1.6425724594
2.149219	 -1.6536818933
2.152288	 -1.6647908821
2.155336	 -1.6758994395
2.158362	 -1.6870075788
2.161368	 -1.6981153126
2.164353	 -1.7092226534
2.167317	 -1.7203296130
2.170262	 -1.7314362026
2.173186	 -1.7425424334
2.176091	 -1.7536483159
2.178977	 -1.7647538604
2.181844	 -1.7758590766
2.184691	 -1.7869639742
2.187521	 -1.7980685623
2.190332	 -1.8091728497
2.193125	 -1.8202768450
2.195900	 -1.8313805565
2.198657	 -1.8424839921
2.201397	 -1.8535871597
2.204120	 -1.8646900666
2.206826	 -1.8757927200
2.209515	 -1.8868951270
2.212188	 -1.8979972943
2.214844	 -1.9090992284
2.217484	 -1.9202009357
2.220108	 -1.9313024222
2.222716	 -1.9424036938
2.225309	 -1.9535047564
2.227887	 -1.9646056155
2.230449	 -1.9757062764
2.232996	 -1.9868067444
2.235528	 -1.9979070245
2.238046	 -2.0090071216
2.240549	 -2.0201070405
2.243038	 -2.0312067858
2.245513	 -2.0423063620
2.247973	 -2.0534057733
2.250420	 -2.0645050241
2.252853	 -2.0756041183
2.255273	 -2.0867030600
2.257679	 -2.0978018530
2.260071	 -2.1089005010
2.262451	 -2.1199990077
2.264818	 -2.1310973766
2.267172	 -2.1421956110
2.269513	 -2.1532937145
2.271842	 -2.1643916901
2.274158	 -2.1754895410
2.276462	 -2.1865872704
2.278754	 -2.1976848810
2.281033	 -2.2087823759
2.283301	 -2.2198797579
2.285557	 -2.2309770296
2.287802	 -2.2420741938
2.290035	 -2.2531712530
2.292256	 -2.2642682098
2.294466	 -2.2753650665
2.296665	 -2.2864618257
2.298853	 -2.2975584895
2.301030	 -2.3086550603
2.303196	 -2.3197515402
2.305351	 -2.3308479314
2.307496	 -2.3419442361
2.309630	 -2.3530404561
2.311754	 -2.3641365935
2.313867	 -2.3752326503
2.315970	 -2.3863286283
2.318063	 -2.3974245293
2.320146	 -2.4085203551
2.322219	 -2.4196161075
2.324282	 -2.4307117881
2.326336	 -2.4418073986
2.328380	 -2.4529029407
2.330414	 -2.4639984158
2.332438	 -2.4750938255
2.334454	 -2.4861891714
2.336460	 -2.4972844548
2.338456	 -2.5083796772
2.340444	 -2.5194748400
2.342423	 -2.5305699445
2.344392	 -2.5416649920
2.346353	 -2.5527599839
2.348305	 -2.5638549213
2.350248	 -2.5749498056
2.352183	 -2.5860446378
2.354108	 -2.5971394192
2.356026	 -2.6082341510
2.357935	 -2.6193288341
2.359835	 -2.6304234697
2.361728	 -2.6415180589
2.363612	 -2.6526126027
2.365488	 -2.6637071021
2.367356	 -2.6748015580
2.369216	 -2.6858959716
2.371068	 -2.6969903436
2.372912	 -2.7080846750
2.374748	 -2.7191789667
2.376577	 -2.7302732196
2.378398	 -2.7413674345
2.380211	 -2.7524616123
2.382017	 -2.7635557537
2.383815	 -2.7746498596
2.385606	 -2.7857439308
2.387390	 -2.7968379680
2.389166	 -2.8079319720
2.390935	 -2.8190259434
2.392697	 -2.8301198831
2.394452	 -2.8412137916
2.396199	 -2.8523076697
2.397940	 -2.8634015180
2.399674	 -2.8744953371
2.401401	 -2.8855891278
2.403121	 -2.8966828906
2.404834	 -2.9077766261
2.406540	 -2.9188703349
2.408240	 -2.9299640177
2.409933	 -2.9410576748
2.411620	 -2.9521513070
2.413300	 -2.9632449148
2.414973	 -2.9743384986
2.416641	 -2.9854320589
2.418301	 -2.9965255964
2.419956	 -3.0076191115
2.421604	 -3.0187126046
2.423246	 -3.0298060763
2.424882	 -3.0408995269
2.426511	 -3.0519929570
2.428135	 -3.0630863670
2.429752	 -3.0741797573
2.431364	 -3.0852731283
2.432969	 -3.0963664805
2.434569	 -3.1074598142
2.436163	 -3.1185531299
2.437751	 -3.1296464279
2.439333	 -3.1407397086
2.440909	 -3.1518329724
2.442480	 -3.1629262196
2.444045	 -3.1740194506
2.445604	 -3.1851126658
2.447158	 -3.1962058654
2.448706	 -3.2072990498
2.450249	 -3.2183922193
2.451786	 -3.2294853743
2.453318	 -3.2405785150
2.454845	 -3.2516716418
2.456366	 -3.2627647549
2.457882	 -3.2738578546
2.459392	 -3.2849509413
2.460898	 -3.2960440151
2.462398	 -3.3071370764
2.463893	 -3.3182301255
2.465383	 -3.3293231625
2.466868	 -3.3404161878
2.468347	 -3.3515092015
2.469822	 -3.3626022040
2.471292	 -3.3736951955
2.472756	 -3.3847881761
2.474216	 -3.3958811462
2.475671	 -3.4069741060
2.477121	 -3.4180670556
2.478566	 -3.4291599953
2.480007	 -3.4402529253
2.481443	 -3.4513458458
2.482874	 -3.4624387570
2.484300	 -3.4735316591
2.485721	 -3.4846245523
2.487138	 -3.4957174367
2.488551	 -3.5068103126
2.489958	 -3.5179031802
2.491362	 -3.5289960395
2.492760	 -3.5400888909
2.494155	 -3.5511817343
2.495544	 -3.5622745701
2.496930	 -3.5733673984
2.498311	 -3.5844602193
2.499687	 -3.5955530330
2.501059	 -3.6066458396
2.502427	 -3.6177386394
2.503791	 -3.6288314323
2.505150	 -3.6399242186
2.506505	 -3.6510169985
2.507856	 -3.6621097720
2.509203	 -3.6732025392
2.510545	 -3.6842953004
2.511883	 -3.6953880557
2.513218	 -3.7064808050
2.514548	 -3.7175735487
2.515874	 -3.7286662868
2.517196	 -3.7397590194
2.518514	 -3.7508517466
2.519828	 -3.7619444686
2.521138	 -3.7730371854
2.522444	 -3.7841298972
2.523746	 -3.7952226041
2.525045	 -3.8063153062
2.526339	 -3.8174080035
2.527630	 -3.8285006962
2.528917	 -3.8395933843
2.530200	 -3.8506860681
2.531479	 -3.8617787475
2.532754	 -3.8728714226
2.534026	 -3.8839640936
2.535294	 -3.8950567605
2.536558	 -3.9061494233
2.537819	 -3.9172420823
2.539076	 -3.9283347375
2.540329	 -3.9394273889
2.541579	 -3.9505200367
2.542825	 -3.9616126808
2.544068	 -3.9727053214
2.545307	 -3.9837979586
2.546543	 -3.9948905924
2.547775	 -4.0059832229
2.549003	 -4.0170758502
2.550228	 -4.0281684743
2.551450	 -4.0392610953
2.552668	 -4.0503537133
2.553883	 -4.0614463283
2.555094	 -4.0725389404
2.556303	 -4.0836315496
2.557507	 -4.0947241560
2.558709	 -4.1058167597
2.559907	 -4.1169093608
2.561101	 -4.1280019592
2.562293	 -4.1390945550
2.563481	 -4.1501871483
2.564666	 -4.1612797392
2.565848	 -4.1723723276
2.567026	 -4.1834649137
2.568202	 -4.1945574975
2.569374	 -4.2056500790
2.570543	 -4.2167426583
2.571709	 -4.2278352355
2.572872	 -4.2389278105
2.574031	 -4.2500203834
2.575188	 -4.2611129543
2.576341	 -4.2722055232
2.577492	 -4.2832980901
2.578639	 -4.2943906552
2.579784	 -4.3054832183
2.580925	 -4.3165757796
2.582063	 -4.3276683392
2.583199	 -4.3387608969
2.584331	 -4.3498534530
2.585461	 -4.3609460073
2.586587	 -4.3720385600
2.587711	 -4.3831311111
2.588832	 -4.3942236606
2.589950	 -4.4053162086
2.591065	 -4.4164087550
2.592177	 -4.4275013000
2.593286	 -4.4385938435
2.594393	 -4.4496863855
2.595496	 -4.4607789262
2.596597	 -4.4718714655
2.597695	 -4.4829640034
2.598791	 -4.4940565401
2.599883	 -4.5051490755
2.600973	 -4.5162416096
2.602060	 -4.5273341425
2.603144	 -4.5384266741
2.604226	 -4.5495192046
2.605305	 -4.5606117339
2.606381	 -4.5717042621
2.607455	 -4.5827967892
2.608526	 -4.5938893152
2.609594	 -4.6049818402
2.610660	 -4.6160743641
2.611723	 -4.6271668869
2.612784	 -4.6382594088
2.613842	 -4.6493519297
2.614897	 -4.6604444497
2.615950	 -4.6715369687
2.617000	 -4.6826294868
2.618048	 -4.6937220039
2.619093	 -4.7048145203
2.620136	 -4.7159070357
2.621176	 -4.7269995503
2.622214	 -4.7380920640
2.623249	 -4.7491845770
2.624282	 -4.7602770892
2.625312	 -4.7713696006
2.626340	 -4.7824621112
2.627366	 -4.7935546211
2.628389	 -4.8046471303
2.629410	 -4.8157396387
2.630428	 -4.8268321465
2.631444	 -4.8379246535
2.632457	 -4.8490171599
2.633468	 -4.8601096656
2.634477	 -4.8712021707
2.635484	 -4.8822946752
2.636488	 -4.8933871791
2.637490	 -4.9044796823
2.638489	 -4.9155721849
2.639486	 -4.9266646870
2.640481	 -4.9377571885
2.641474	 -4.9488496894
2.642465	 -4.9599421899
2.643453	 -4.9710346897
2.644439	 -4.9821271891
2.645422	 -4.9932196879
2.646404	 -5.0043121863
2.647383	 -5.0154046841
2.648360	 -5.0264971814
2.649335	 -5.0375896784
2.650308	 -5.0486821748
2.651278	 -5.0597746707
2.652246	 -5.0708671663
2.653213	 -5.0819596614
2.654177	 -5.0930521561
2.655138	 -5.1041446504
2.656098	 -5.1152371442
2.657056	 -5.1263296377
2.658011	 -5.1374221307
2.658965	 -5.1485146235
2.659916	 -5.1596071159
2.660865	 -5.1706996078
2.661813	 -5.1817920994
2.662758	 -5.1928845907
2.663701	 -5.2039770816
2.664642	 -5.2150695721
2.665581	 -5.2261620624
2.666518	 -5.2372545523
2.667453	 -5.2483470419
2.668386	 -5.2594395311
2.669317	 -5.2705320201
2.670246	 -5.2816245089
2.671173	 -5.2927169972
2.672098	 -5.3038094854
2.673021	 -5.3149019733
2.673942	 -5.3259944608
2.674861	 -5.3370869481
2.675778	 -5.3481794352
2.676694	 -5.3592719220
2.677607	 -5.3703644084
2.678518	 -5.3814568947
2.679428	 -5.3925493807
2.680336	 -5.4036418666
2.681241	 -5.4147343522
2.682145	 -5.4258268375
2.683047	 -5.4369193227
2.683947	 -5.4480118075
2.684845	 -5.4591042922
2.685742	 -5.4701967768
2.686636	 -5.4812892612
2.687529	 -5.4923817450
2.688420	 -5.5034742291
2.689309	 -5.5145667129
2.690196	 -5.5256591963
2.691081	 -5.5367516797
2.691965	 -5.5478441627
2.692847	 -5.5589366457
2.693727	 -5.5700291287
2.694605	 -5.5811216115
2.695482	 -5.5922140938
2.696356	 -5.6033065760
2.697229	 -5.6143990582
2.698101	 -5.6254915402
2.698970	 -5.6365840221
2.699838	 -5.6476765039
2.700704	 -5.6587689854
2.701568	 -5.6698614668
2.702431	 -5.6809539483
2.703291	 -5.6920464293
2.704151	 -5.7031389103
2.705008	 -5.7142313910
2.705864	 -5.7253238718
2.706718	 -5.7364163525
2.707570	 -5.7475088330
2.708421	 -5.7586013132
2.709270	 -5.7696937933
2.710117	 -5.7807862737
2.710963	 -5.7918787539
2.711807	 -5.8029712337
2.712650	 -5.8140637133
2.713491	 -5.8251561931
2.714330	 -5.8362486727
2.715167	 -5.8473411523
2.716003	 -5.8584336318
2.716838	 -5.8695261108
2.717671	 -5.8806185903
2.718502	 -5.8917110689
2.719331	 -5.9028035484
2.720159	 -5.9138960271
2.720986	 -5.9249885059
2.721811	 -5.9360809851
2.722634	 -5.9471734638
2.723456	 -5.9582659420
2.724276	 -5.9693584200
2.725095	 -5.9804508989
2.725912	 -5.9915433775
2.726727	 -6.0026358555
