Variables= "X","Y"
zone T= "BLOCK1", I=10, J=10

0.477121	 0.7263342136
0.602060	 0.4702567736
0.698970	 0.3288179070
0.778151	 0.2302222671
0.845098	 0.1543832924
0.903090	 0.0927077978
0.954243	 0.0407100969
1.000000	 -0.0042511685
1.041393	 -0.0438639119
1.079181	 -0.0792728781
1.113943	 -0.1112904364
1.146128	 -0.1405140582
1.176091	 -0.1673960542
1.204120	 -0.1922871191
1.230449	 -0.2154646715
1.255273	 -0.2371519499
1.278754	 -0.2575312623
1.301030	 -0.2767534174
1.322219	 -0.2949445846
1.342423	 -0.3122113828
1.361728	 -0.3286447191
1.380211	 -0.3443227296
1.397940	 -0.3593130625
1.414973	 -0.3736746735
1.431364	 -0.3874592520
1.447158	 -0.4007123675
1.462398	 -0.4134743975
1.477121	 -0.4257812871
1.491362	 -0.4376651738
1.505150	 -0.4491549065
1.518514	 -0.4602764791
1.531479	 -0.4710533947
1.544068	 -0.4815069737
1.556303	 -0.4916566159
1.568202	 -0.5015200242
1.579784	 -0.5111133969
1.591065	 -0.5204515932
1.602060	 -0.5295482771
1.612784	 -0.5384160424
1.623249	 -0.5470665214
1.633468	 -0.5555104807
1.643453	 -0.5637579053
1.653213	 -0.5718180725
1.662758	 -0.5796996183
1.672098	 -0.5874105947
1.681241	 -0.5949585225
1.690196	 -0.6023504373
1.698970	 -0.6095929314
1.707570	 -0.6166921906
1.716003	 -0.6236540281
1.724276	 -0.6304839152
1.732394	 -0.6371870078
1.740363	 -0.6437681721
1.748188	 -0.6502320067
1.755875	 -0.6565828630
1.763428	 -0.6628248644
1.770852	 -0.6689619224
1.778151	 -0.6749977531
1.785330	 -0.6809358908
1.792392	 -0.6867797011
1.799341	 -0.6925323928
1.806180	 -0.6981970288
1.812913	 -0.7037765361
1.819544	 -0.7092737148
1.826075	 -0.7146912470
1.832509	 -0.7200317037
1.838849	 -0.7252975525
1.845098	 -0.7304911640
1.851258	 -0.7356148175
1.857332	 -0.7406707068
1.863323	 -0.7456609450
1.869232	 -0.7505875692
1.875061	 -0.7554525449
1.880814	 -0.7602577698
1.886491	 -0.7650050773
1.892095	 -0.7696962398
1.897627	 -0.7743329722
1.903090	 -0.7789169338
1.908485	 -0.7834497320
1.913814	 -0.7879329237
1.919078	 -0.7923680181
1.924279	 -0.7967564785
1.929419	 -0.8010997242
1.934498	 -0.8053991323
1.939519	 -0.8096560394
1.944483	 -0.8138717427
1.949390	 -0.8180475018
1.954243	 -0.8221845401
1.959041	 -0.8262840456
1.963788	 -0.8303471721
1.968483	 -0.8343750408
1.973128	 -0.8383687407
1.977724	 -0.8423293298
1.982271	 -0.8462578361
1.986772	 -0.8501552581
1.991226	 -0.8540225663
1.995635	 -0.8578607031
2.000000	 -0.8616705842
2.004321	 -0.8654530992
2.008600	 -0.8692091121
2.012837	 -0.8729394619
2.017033	 -0.8766449637
2.021189	 -0.8803264087
2.025306	 -0.8839845654
2.029384	 -0.8876201797
2.033424	 -0.8912339757
2.037426	 -0.8948266562
2.041393	 -0.8983989033
2.045323	 -0.9019513789
2.049218	 -0.9054847250
2.053078	 -0.9089995647
2.056905	 -0.9124965020
2.060698	 -0.9159761230
2.064458	 -0.9194389957
2.068186	 -0.9228856711
2.071882	 -0.9263166831
2.075547	 -0.9297325493
2.079181	 -0.9331337713
2.082785	 -0.9365208351
2.086360	 -0.9398942116
2.089905	 -0.9432543570
2.093422	 -0.9466017131
2.096910	 -0.9499367077
2.100371	 -0.9532597552
2.103804	 -0.9565712567
2.107210	 -0.9598716006
2.110590	 -0.9631611628
2.113943	 -0.9664403071
2.117271	 -0.9697093855
2.120574	 -0.9729687387
2.123852	 -0.9762186963
2.127105	 -0.9794595772
2.130334	 -0.9826916897
2.133539	 -0.9859153322
2.136721	 -0.9891307931
2.139879	 -0.9923383513
2.143015	 -0.9955382766
2.146128	 -0.9987308297
2.149219	 -1.0019162628
2.152288	 -1.0050948194
2.155336	 -1.0082667350
2.158362	 -1.0114322374
2.161368	 -1.0145915463
2.164353	 -1.0177448745
2.167317	 -1.0208924272
2.170262	 -1.0240344029
2.173186	 -1.0271709932
2.176091	 -1.0303023834
2.178977	 -1.0334287522
2.181844	 -1.0365502726
2.184691	 -1.0396671113
2.187521	 -1.0427794296
2.190332	 -1.0458873830
2.193125	 -1.0489911219
2.195900	 -1.0520907914
2.198657	 -1.0551865317
2.201397	 -1.0582784780
2.204120	 -1.0613667610
2.206826	 -1.0644515068
2.209515	 -1.0675328372
2.212188	 -1.0706108697
2.214844	 -1.0736857179
2.217484	 -1.0767574911
2.220108	 -1.0798262953
2.222716	 -1.0828922324
2.225309	 -1.0859554009
2.227887	 -1.0890158959
2.230449	 -1.0920738092
2.232996	 -1.0951292293
2.235528	 -1.0981822418
2.238046	 -1.1012329290
2.240549	 -1.1042813707
2.243038	 -1.1073276436
2.245513	 -1.1103718220
2.247973	 -1.1134139772
2.250420	 -1.1164541784
2.252853	 -1.1194924923
2.255273	 -1.1225289831
2.257679	 -1.1255637128
2.260071	 -1.1285967413
2.262451	 -1.1316281265
2.264818	 -1.1346579240
2.267172	 -1.1376861877
2.269513	 -1.1407129694
2.271842	 -1.1437383194
2.274158	 -1.1467622858
2.276462	 -1.1497849153
2.278754	 -1.1528062530
2.281033	 -1.1558263424
2.283301	 -1.1588452252
2.285557	 -1.1618629419
2.287802	 -1.1648795317
2.290035	 -1.1678950321
2.292256	 -1.1709094795
2.294466	 -1.1739229089
2.296665	 -1.1769353543
2.298853	 -1.1799468482
2.301030	 -1.1829574222
2.303196	 -1.1859671068
2.305351	 -1.1889759312
2.307496	 -1.1919839239
2.309630	 -1.1949911121
2.311754	 -1.1979975223
2.313867	 -1.2010031799
2.315970	 -1.2040081096
2.318063	 -1.2070123350
2.320146	 -1.2100158791
2.322219	 -1.2130187640
2.324282	 -1.2160210110
2.326336	 -1.2190226407
2.328380	 -1.2220236731
2.330414	 -1.2250241274
2.332438	 -1.2280240220
2.334454	 -1.2310233749
2.336460	 -1.2340222034
2.338456	 -1.2370205241
2.340444	 -1.2400183532
2.342423	 -1.2430157062
2.344392	 -1.2460125981
2.346353	 -1.2490090435
2.348305	 -1.2520050564
2.350248	 -1.2550006503
2.352183	 -1.2579958382
2.354108	 -1.2609906328
2.356026	 -1.2639850463
2.357935	 -1.2669790905
2.359835	 -1.2699727767
2.361728	 -1.2729661159
2.363612	 -1.2759591187
2.365488	 -1.2789517955
2.367356	 -1.2819441561
2.369216	 -1.2849362100
2.371068	 -1.2879279666
2.372912	 -1.2909194348
2.374748	 -1.2939106232
2.376577	 -1.2969015402
2.378398	 -1.2998921939
2.380211	 -1.3028825920
2.382017	 -1.3058727421
2.383815	 -1.3088626516
2.385606	 -1.3118523274
2.387390	 -1.3148417763
2.389166	 -1.3178310051
2.390935	 -1.3208200200
2.392697	 -1.3238088272
2.394452	 -1.3267974326
2.396199	 -1.3297858421
2.397940	 -1.3327740613
2.399674	 -1.3357620955
2.401401	 -1.3387499499
2.403121	 -1.3417376296
2.404834	 -1.3447251395
2.406540	 -1.3477124843
2.408240	 -1.3506996686
2.409933	 -1.3536866969
2.411620	 -1.3566735734
2.413300	 -1.3596603022
2.414973	 -1.3626468875
2.416641	 -1.3656333331
2.418301	 -1.3686196428
2.419956	 -1.3716058201
2.421604	 -1.3745918688
2.423246	 -1.3775777921
2.424882	 -1.3805635934
2.426511	 -1.3835492760
2.428135	 -1.3865348429
2.429752	 -1.3895202971
2.431364	 -1.3925056417
2.432969	 -1.3954908794
2.434569	 -1.3984760129
2.436163	 -1.4014610450
2.437751	 -1.4044459783
2.439333	 -1.4074308151
2.440909	 -1.4104155581
2.442480	 -1.4134002095
2.444045	 -1.4163847715
2.445604	 -1.4193692466
2.447158	 -1.4223536367
2.448706	 -1.4253379440
2.450249	 -1.4283221705
2.451786	 -1.4313063182
2.453318	 -1.4342903890
2.454845	 -1.4372743847
2.456366	 -1.4402583072
2.457882	 -1.4432421582
2.459392	 -1.4462259394
2.460898	 -1.4492096525
2.462398	 -1.4521932990
2.463893	 -1.4551768805
2.465383	 -1.4581603986
2.466868	 -1.4611438546
2.468347	 -1.4641272502
2.469822	 -1.4671105865
2.471292	 -1.4700938651
2.472756	 -1.4730770871
2.474216	 -1.4760602540
2.475671	 -1.4790433668
2.477121	 -1.4820264269
2.478566	 -1.4850094355
2.480007	 -1.4879923936
2.481443	 -1.4909753024
2.482874	 -1.4939581630
2.484300	 -1.4969409764
2.485721	 -1.4999237437
2.487138	 -1.5029064658
2.488551	 -1.5058891438
2.489958	 -1.5088717787
2.491362	 -1.5118543712
2.492760	 -1.5148369224
2.494155	 -1.5178194331
2.495544	 -1.5208019042
2.496930	 -1.5237843365
2.498311	 -1.5267667309
2.499687	 -1.5297490881
2.501059	 -1.5327314089
2.502427	 -1.5357136940
2.503791	 -1.5386959443
2.505150	 -1.5416781604
2.506505	 -1.5446603431
2.507856	 -1.5476424930
2.509203	 -1.5506246108
2.510545	 -1.5536066971
2.511883	 -1.5565887527
2.513218	 -1.5595707780
2.514548	 -1.5625527738
2.515874	 -1.5655347406
2.517196	 -1.5685166790
2.518514	 -1.5714985897
2.519828	 -1.5744804730
2.521138	 -1.5774623296
2.522444	 -1.5804441601
2.523746	 -1.5834259649
2.525045	 -1.5864077445
2.526339	 -1.5893894995
2.527630	 -1.5923712303
2.528917	 -1.5953529374
2.530200	 -1.5983346213
2.531479	 -1.6013162824
2.532754	 -1.6042979212
2.534026	 -1.6072795381
2.535294	 -1.6102611335
2.536558	 -1.6132427079
2.537819	 -1.6162242617
2.539076	 -1.6192057952
2.540329	 -1.6221873089
2.541579	 -1.6251688032
2.542825	 -1.6281502783
2.544068	 -1.6311317348
2.545307	 -1.6341131729
2.546543	 -1.6370945930
2.547775	 -1.6400759955
2.549003	 -1.6430573807
2.550228	 -1.6460387490
2.551450	 -1.6490201006
2.552668	 -1.6520014359
2.553883	 -1.6549827551
2.555094	 -1.6579640587
2.556303	 -1.6609453469
2.557507	 -1.6639266201
2.558709	 -1.6669078784
2.559907	 -1.6698891222
2.561101	 -1.6728703518
2.562293	 -1.6758515674
2.563481	 -1.6788327693
2.564666	 -1.6818139579
2.565848	 -1.6847951332
2.567026	 -1.6877762957
2.568202	 -1.6907574455
2.569374	 -1.6937385829
2.570543	 -1.6967197082
2.571709	 -1.6997008215
2.572872	 -1.7026819232
2.574031	 -1.7056630134
2.575188	 -1.7086440923
2.576341	 -1.7116251602
2.577492	 -1.7146062174
2.578639	 -1.7175872639
2.579784	 -1.7205683001
2.580925	 -1.7235493262
2.582063	 -1.7265303422
2.583199	 -1.7295113485
2.584331	 -1.7324923453
2.585461	 -1.7354733326
2.586587	 -1.7384543108
2.587711	 -1.7414352800
2.588832	 -1.7444162404
2.589950	 -1.7473971921
2.591065	 -1.7503781354
2.592177	 -1.7533590704
2.593286	 -1.7563399973
2.594393	 -1.7593209162
2.595496	 -1.7623018273
2.596597	 -1.7652827309
2.597695	 -1.7682636269
2.598791	 -1.7712445157
2.599883	 -1.7742253974
2.600973	 -1.7772062720
2.602060	 -1.7801871398
2.603144	 -1.7831680009
2.604226	 -1.7861488554
2.605305	 -1.7891297036
2.606381	 -1.7921105454
2.607455	 -1.7950913812
2.608526	 -1.7980722109
2.609594	 -1.8010530348
2.610660	 -1.8040338529
2.611723	 -1.8070146655
2.612784	 -1.8099954725
2.613842	 -1.8129762743
2.614897	 -1.8159570708
2.615950	 -1.8189378621
2.617000	 -1.8219186486
2.618048	 -1.8248994301
2.619093	 -1.8278802069
2.620136	 -1.8308609790
2.621176	 -1.8338417466
2.622214	 -1.8368225098
2.623249	 -1.8398032687
2.624282	 -1.8427840234
2.625312	 -1.8457647740
2.626340	 -1.8487455206
2.627366	 -1.8517262633
2.628389	 -1.8547070022
2.629410	 -1.8576877374
2.630428	 -1.8606684691
2.631444	 -1.8636491972
2.632457	 -1.8666299219
2.633468	 -1.8696106433
2.634477	 -1.8725913615
2.635484	 -1.8755720765
2.636488	 -1.8785527885
2.637490	 -1.8815334975
2.638489	 -1.8845142037
2.639486	 -1.8874949070
2.640481	 -1.8904756077
2.641474	 -1.8934563057
2.642465	 -1.8964370012
2.643453	 -1.8994176943
2.644439	 -1.9023983849
2.645422	 -1.9053790732
2.646404	 -1.9083597593
2.647383	 -1.9113404432
2.648360	 -1.9143211250
2.649335	 -1.9173018048
2.650308	 -1.9202824827
2.651278	 -1.9232631587
2.652246	 -1.9262438329
2.653213	 -1.9292245053
2.654177	 -1.9322051760
2.655138	 -1.9351858452
2.656098	 -1.9381665128
2.657056	 -1.9411471789
2.658011	 -1.9441278436
2.658965	 -1.9471085069
2.659916	 -1.9500891689
2.660865	 -1.9530698297
2.661813	 -1.9560504893
2.662758	 -1.9590311478
2.663701	 -1.9620118052
2.664642	 -1.9649924615
2.665581	 -1.9679731170
2.666518	 -1.9709537715
2.667453	 -1.9739344252
2.668386	 -1.9769150780
2.669317	 -1.9798957301
2.670246	 -1.9828763816
2.671173	 -1.9858570323
2.672098	 -1.9888376825
2.673021	 -1.9918183321
2.673942	 -1.9947989812
2.674861	 -1.9977796299
2.675778	 -2.0007602781
2.676694	 -2.0037409259
2.677607	 -2.0067215735
2.678518	 -2.0097022207
2.679428	 -2.0126828677
2.680336	 -2.0156635146
2.681241	 -2.0186441612
2.682145	 -2.0216248078
2.683047	 -2.0246054542
2.683947	 -2.0275861007
2.684845	 -2.0305667471
2.685742	 -2.0335473936
2.686636	 -2.0365280401
2.687529	 -2.0395086868
2.688420	 -2.0424893336
2.689309	 -2.0454699806
2.690196	 -2.0484506278
2.691081	 -2.0514312752
2.691965	 -2.0544119230
2.692847	 -2.0573925711
2.693727	 -2.0603732195
2.694605	 -2.0633538683
2.695482	 -2.0663345175
2.696356	 -2.0693151672
2.697229	 -2.0722958173
2.698101	 -2.0752764680
2.698970	 -2.0782571192
2.699838	 -2.0812377709
2.700704	 -2.0842184232
2.701568	 -2.0871990762
2.702431	 -2.0901797298
2.703291	 -2.0931603841
2.704151	 -2.0961410390
2.705008	 -2.0991216947
2.705864	 -2.1021023512
2.706718	 -2.1050830084
2.707570	 -2.1080636664
2.708421	 -2.1110443253
2.709270	 -2.1140249849
2.710117	 -2.1170056455
2.710963	 -2.1199863069
2.711807	 -2.1229669693
2.712650	 -2.1259476326
2.713491	 -2.1289282968
2.714330	 -2.1319089620
2.715167	 -2.1348896282
2.716003	 -2.1378702954
2.716838	 -2.1408509637
2.717671	 -2.1438316330
2.718502	 -2.1468123034
2.719331	 -2.1497929749
2.720159	 -2.1527736474
2.720986	 -2.1557543212
2.721811	 -2.1587349960
2.722634	 -2.1617156720
2.723456	 -2.1646963492
2.724276	 -2.1676770276
2.725095	 -2.1706577072
2.725912	 -2.1736383880
2.726727	 -2.1766190701
2.727541	 -2.1795997534
2.728354	 -2.1825804380
2.729165	 -2.1855611238
2.729974	 -2.1885418110
2.730782	 -2.1915224994
2.731589	 -2.1945031892
2.732394	 -2.1974838804
2.733197	 -2.2004645729
2.733999	 -2.2034452667
2.734800	 -2.2064259619
2.735599	 -2.2094066585
2.736397	 -2.2123873565
2.737193	 -2.2153680559
2.737987	 -2.2183487568
2.738781	 -2.2213294590
2.739572	 -2.2243101627
2.740363	 -2.2272908679
2.741152	 -2.2302715745
2.741939	 -2.2332522826
2.742725	 -2.2362329921
2.743510	 -2.2392137032
2.744293	 -2.2421944157
2.745075	 -2.2451751298
2.745855	 -2.2481558453
2.746634	 -2.2511365624
2.747412	 -2.2541172810
2.748188	 -2.2570980012
2.748963	 -2.2600787229
2.749736	 -2.2630594462
2.750508	 -2.2660401710
2.751279	 -2.2690208974
2.752048	 -2.2720016253
2.752816	 -2.2749823549
2.753583	 -2.2779630860
2.754348	 -2.2809438187
2.755112	 -2.2839245530
2.755875	 -2.2869052890
2.756636	 -2.2898860265
2.757396	 -2.2928667656
2.758155	 -2.2958475064
2.758912	 -2.2988282488
2.759668	 -2.3018089928
2.760422	 -2.3047897385
2.761176	 -2.3077704858
2.761928	 -2.3107512347
2.762679	 -2.3137319853
2.763428	 -2.3167127375
2.764176	 -2.3196934914
2.764923	 -2.3226742470
2.765669	 -2.3256550042
2.766413	 -2.3286357631
2.767156	 -2.3316165236
2.767898	 -2.3345972858
2.768638	 -2.3375780497
2.769377	 -2.3405588153
2.770115	 -2.3435395825
2.770852	 -2.3465203514
2.771587	 -2.3495011220
2.772322	 -2.3524818943
2.773055	 -2.3554626683
2.773786	 -2.3584434440
2.774517	 -2.3614242213
2.775246	 -2.3644050003
2.775974	 -2.3673857811
2.776701	 -2.3703665635
2.777427	 -2.3733473476
2.778151	 -2.3763281335
2.778874	 -2.3793089210
2.779596	 -2.3822897102
2.780317	 -2.3852705011
2.781037	 -2.3882512937
2.781755	 -2.3912320881
2.782473	 -2.3942128841
2.783189	 -2.3971936818
2.783904	 -2.4001744812
2.784617	 -2.4031552823
2.785330	 -2.4061360851
2.786041	 -2.4091168897
2.786751	 -2.4120976959
2.787460	 -2.4150785038
2.788168	 -2.4180593134
2.788875	 -2.4210401247
2.789581	 -2.4240209377
2.790285	 -2.4270017524
2.790988	 -2.4299825688
2.791691	 -2.4329633869
2.792392	 -2.4359442067
2.793092	 -2.4389250282
2.793790	 -2.4419058514
2.794488	 -2.4448866762
2.795185	 -2.4478675028
2.795880	 -2.4508483310
2.796574	 -2.4538291609
2.797268	 -2.4568099925
2.797960	 -2.4597908258
2.798651	 -2.4627716608
2.799341	 -2.4657524975
2.800029	 -2.4687333358
2.800717	 -2.4717141758
2.801404	 -2.4746950174
2.802089	 -2.4776758608
2.802774	 -2.4806567058
2.803457	 -2.4836375525
2.804139	 -2.4866184008
2.804821	 -2.4895992508
2.805501	 -2.4925801025
2.806180	 -2.4955609558
2.806858	 -2.4985418107
2.807535	 -2.5015226674
2.808211	 -2.5045035256
2.808886	 -2.5074843855
2.809560	 -2.5104652471
2.810233	 -2.5134461103
2.810904	 -2.5164269751
2.811575	 -2.5194078416
2.812245	 -2.5223887097
2.812913	 -2.5253695794
2.813581	 -2.5283504507
2.814248	 -2.5313313237
2.814913	 -2.5343121983
2.815578	 -2.5372930745
2.816241	 -2.5402739523
2.816904	 -2.5432548317
2.817565	 -2.5462357128
2.818226	 -2.5492165954
2.818885	 -2.5521974796
2.819544	 -2.5551783654
2.820201	 -2.5581592528
2.820858	 -2.5611401418
2.821514	 -2.5641210324
2.822168	 -2.5671019246
2.822822	 -2.5700828183
2.823474	 -2.5730637136
2.824126	 -2.5760446105
2.824776	 -2.5790255090
2.825426	 -2.5820064090
2.826075	 -2.5849873105
2.826723	 -2.5879682137
2.827369	 -2.5909491183
2.828015	 -2.5939300245
2.828660	 -2.5969109323
2.829304	 -2.5998918416
2.829947	 -2.6028727524
2.830589	 -2.6058536648
2.831230	 -2.6088345786
2.831870	 -2.6118154941
2.832509	 -2.6147964110
2.833147	 -2.6177773294
2.833784	 -2.6207582493
2.834421	 -2.6237391708
2.835056	 -2.6267200937
2.835691	 -2.6297010182
2.836324	 -2.6326819441
2.836957	 -2.6356628715
2.837588	 -2.6386438004
2.838219	 -2.6416247308
2.838849	 -2.6446056627
2.839478	 -2.6475865960
2.840106	 -2.6505675308
2.840733	 -2.6535484670
2.841359	 -2.6565294048
2.841985	 -2.6595103439
2.842609	 -2.6624912845
2.843233	 -2.6654722266
2.843855	 -2.6684531701
2.844477	 -2.6714341150
2.845098	 -2.6744150614
2.845718	 -2.6773960091
2.846337	 -2.6803769583
2.846955	 -2.6833579090
2.847573	 -2.6863388610
2.848189	 -2.6893198144
2.848805	 -2.6923007693
2.849419	 -2.6952817255
2.850033	 -2.6982626831
2.850646	 -2.7012436422
2.851258	 -2.7042246026
2.851870	 -2.7072055644
2.852480	 -2.7101865275
2.853090	 -2.7131674920
2.853698	 -2.7161484579
2.854306	 -2.7191294252
2.854913	 -2.7221103938
2.855519	 -2.7250913638
2.856124	 -2.7280723351
2.856729	 -2.7310533077
2.857332	 -2.7340342817
2.857935	 -2.7370152570
2.858537	 -2.7399962337
2.859138	 -2.7429772117
2.859739	 -2.7459581910
2.860338	 -2.7489391716
2.860937	 -2.7519201535
2.861534	 -2.7549011367
2.862131	 -2.7578821212
2.862728	 -2.7608631070
2.863323	 -2.7638440941
2.863917	 -2.7668250825
2.864511	 -2.7698060722
2.865104	 -2.7727870631
2.865696	 -2.7757680554
2.866287	 -2.7787490489
2.866878	 -2.7817300436
2.867467	 -2.7847110396
2.868056	 -2.7876920369
2.868644	 -2.7906730354
2.869232	 -2.7936540351
2.869818	 -2.7966350361
2.870404	 -2.7996160383
2.870989	 -2.8025970418
2.871573	 -2.8055780465
2.872156	 -2.8085590524
2.872739	 -2.8115400595
2.873321	 -2.8145210678
2.873902	 -2.8175020773
2.874482	 -2.8204830880
2.875061	 -2.8234641000
2.875640	 -2.8264451131
2.876218	 -2.8294261274
2.876795	 -2.8324071429
2.877371	 -2.8353881595
2.877947	 -2.8383691774
2.878522	 -2.8413501964
2.879096	 -2.8443312165
2.879669	 -2.8473122379
2.880242	 -2.8502932603
2.880814	 -2.8532742840
2.881385	 -2.8562553087
2.881955	 -2.8592363347
2.882525	 -2.8622173617
2.883093	 -2.8651983899
2.883661	 -2.8681794192
2.884229	 -2.8711604496
2.884795	 -2.8741414812
2.885361	 -2.8771225138
2.885926	 -2.8801035476
2.886491	 -2.8830845825
2.887054	 -2.8860656184
2.887617	 -2.8890466555
2.888179	 -2.8920276937
2.888741	 -2.8950087329
2.889302	 -2.8979897732
2.889862	 -2.9009708146
2.890421	 -2.9039518571
2.890980	 -2.9069329006
2.891537	 -2.9099139452
2.892095	 -2.9128949909
2.892651	 -2.9158760376
2.893207	 -2.9188570854
2.893762	 -2.9218381342
2.894316	 -2.9248191841
2.894870	 -2.9278002349
2.895423	 -2.9307812869
2.895975	 -2.9337623398
2.896526	 -2.9367433938
2.897077	 -2.9397244488
2.897627	 -2.9427055048
2.898176	 -2.9456865618
2.898725	 -2.9486676198
2.899273	 -2.9516486788
2.899821	 -2.9546297388
2.900367	 -2.9576107998
2.900913	 -2.9605918618
2.901458	 -2.9635729248
2.902003	 -2.9665539888
2.902547	 -2.9695350537
2.903090	 -2.9725161196
2.903633	 -2.9754971865
2.904174	 -2.9784782544
2.904716	 -2.9814593231
2.905256	 -2.9844403929
2.905796	 -2.9874214636
2.906335	 -2.9904025352
2.906874	 -2.9933836078
2.907411	 -2.9963646814
2.907949	 -2.9993457558
2.908485	 -3.0023268312
2.909021	 -3.0053079075
2.909556	 -3.0082889848
2.910091	 -3.0112700629
2.910624	 -3.0142511420
2.911158	 -3.0172322219
2.911690	 -3.0202133028
2.912222	 -3.0231943846
2.912753	 -3.0261754673
2.913284	 -3.0291565508
2.913814	 -3.0321376353
2.914343	 -3.0351187206
2.914872	 -3.0380998068
2.915400	 -3.0410808939
2.915927	 -3.0440619819
2.916454	 -3.0470430707
2.916980	 -3.0500241604
2.917506	 -3.0530052510
2.918030	 -3.0559863424
2.918555	 -3.0589674347
2.919078	 -3.0619485278
2.919601	 -3.0649296217
2.920123	 -3.0679107165
2.920645	 -3.0708918122
2.921166	 -3.0738729086
2.921686	 -3.0768540059
2.922206	 -3.0798351041
2.922725	 -3.0828162030
2.923244	 -3.0857973028
2.923762	 -3.0887784033
2.924279	 -3.0917595047
2.924796	 -3.0947406069
2.925312	 -3.0977217099
2.925828	 -3.1007028137
2.926342	 -3.1036839183
2.926857	 -3.1066650237
2.927370	 -3.1096461299
2.927883	 -3.1126272368
2.928396	 -3.1156083445
2.928908	 -3.1185894531
2.929419	 -3.1215705623
2.929930	 -3.1245516724
2.930440	 -3.1275327832
2.930949	 -3.1305138948
2.931458	 -3.1334950071
2.931966	 -3.1364761202
2.932474	 -3.1394572341
2.932981	 -3.1424383487
2.933487	 -3.1454194640
2.933993	 -3.1484005801
2.934498	 -3.1513816969
2.935003	 -3.1543628144
2.935507	 -3.1573439327
2.936011	 -3.1603250517
2.936514	 -3.1633061715
2.937016	 -3.1662872919
2.937518	 -3.1692684131
2.938019	 -3.1722495349
2.938520	 -3.1752306575
2.939020	 -3.1782117808
2.939519	 -3.1811929048
2.940018	 -3.1841740295
2.940516	 -3.1871551549
2.941014	 -3.1901362810
2.941511	 -3.1931174078
2.942008	 -3.1960985352
2.942504	 -3.1990796634
2.943000	 -3.2020607922
2.943495	 -3.2050419217
2.943989	 -3.2080230519
2.944483	 -3.2110041827
2.944976	 -3.2139853142
2.945469	 -3.2169664464
2.945961	 -3.2199475792
2.946452	 -3.2229287127
2.946943	 -3.2259098468
2.947434	 -3.2288909816
2.947924	 -3.2318721171
2.948413	 -3.2348532531
2.948902	 -3.2378343899
2.949390	 -3.2408155272
2.949878	 -3.2437966652
2.950365	 -3.2467778038
2.950851	 -3.2497589431
2.951338	 -3.2527400830
2.951823	 -3.2557212235
2.952308	 -3.2587023646
2.952792	 -3.2616835063
2.953276	 -3.2646646487
2.953760	 -3.2676457916
2.954243	 -3.2706269352
2.954725	 -3.2736080793
2.955207	 -3.2765892241
2.955688	 -3.2795703695
2.956168	 -3.2825515154
2.956649	 -3.2855326620
2.957128	 -3.2885138091
2.957607	 -3.2914949569
2.958086	 -3.2944761052
2.958564	 -3.2974572541
2.959041	 -3.3004384036
2.959518	 -3.3034195536
2.959995	 -3.3064007042
2.960471	 -3.3093818554
2.960946	 -3.3123630072
2.961421	 -3.3153441595
2.961895	 -3.3183253124
2.962369	 -3.3213064658
2.962843	 -3.3242876198
2.963316	 -3.3272687743
2.963788	 -3.3302499294
2.964260	 -3.3332310851
2.964731	 -3.3362122412
2.965202	 -3.3391933980
2.965672	 -3.3421745552
2.966142	 -3.3451557130
2.966611	 -3.3481368713
2.967080	 -3.3511180302
2.967548	 -3.3540991896
2.968016	 -3.3570803495
2.968483	 -3.3600615099
2.968950	 -3.3630426709
2.969416	 -3.3660238324
2.969882	 -3.3690049944
2.970347	 -3.3719861569
2.970812	 -3.3749673199
2.971276	 -3.3779484834
2.971740	 -3.3809296474
2.972203	 -3.3839108119
2.972666	 -3.3868919770
2.973128	 -3.3898731425
2.973590	 -3.3928543085
2.974051	 -3.3958354750
2.974512	 -3.3988166420
2.974972	 -3.4017978095
2.975432	 -3.4047789774
2.975891	 -3.4077601459
2.976350	 -3.4107413148
2.976808	 -3.4137224842
2.977266	 -3.4167036541
2.977724	 -3.4196848244
2.978181	 -3.4226659953
2.978637	 -3.4256471665
2.979093	 -3.4286283383
2.979548	 -3.4316095105
2.980003	 -3.4345906832
2.980458	 -3.4375718563
2.980912	 -3.4405530299
2.981366	 -3.4435342039
2.981819	 -3.4465153784
2.982271	 -3.4494965534
2.982723	 -3.4524777288
2.983175	 -3.4554589046
2.983626	 -3.4584400809
2.984077	 -3.4614212576
2.984527	 -3.4644024347
2.984977	 -3.4673836123
2.985426	 -3.4703647903
2.985875	 -3.4733459688
2.986324	 -3.4763271476
2.986772	 -3.4793083269
2.987219	 -3.4822895067
2.987666	 -3.4852706868
2.988113	 -3.4882518674
2.988559	 -3.4912330484
2.989005	 -3.4942142297
2.989450	 -3.4971954116
2.989895	 -3.5001765938
2.990339	 -3.5031577764
2.990783	 -3.5061389594
2.991226	 -3.5091201429
2.991669	 -3.5121013267
2.992111	 -3.5150825110
2.992554	 -3.5180636956
2.992995	 -3.5210448807
2.993436	 -3.5240260661
2.993877	 -3.5270072519
2.994317	 -3.5299884381
2.994757	 -3.5329696247
2.995196	 -3.5359508117
2.995635	 -3.5389319991
2.996074	 -3.5419131869
2.996512	 -3.5448943750
2.996949	 -3.5478755635
2.997386	 -3.5508567524
2.997823	 -3.5538379417
2.998259	 -3.5568191313
2.998695	 -3.5598003213
2.999131	 -3.5627815117
2.999565	 -3.5657627024
3.000000	 -3.5687438935
3.000434	 -3.5717250850
3.000868	 -3.5747062768
3.001301	 -3.5776874690
3.001734	 -3.5806686616
3.002166	 -3.5836498545
3.002598	 -3.5866310477
3.003029	 -3.5896122413
3.003461	 -3.5925934353
3.003891	 -3.5955746296
3.004321	 -3.5985558242
3.004751	 -3.6015370192
3.005181	 -3.6045182146
3.005609	 -3.6074994102
3.006038	 -3.6104806063
3.006466	 -3.6134618026
3.006894	 -3.6164429993
3.007321	 -3.6194241963
3.007748	 -3.6224053937
3.008174	 -3.6253865914
3.008600	 -3.6283677894
3.009026	 -3.6313489877
3.009451	 -3.6343301864
3.009876	 -3.6373113854
3.010300	 -3.6402925847
3.010724	 -3.6432737843
3.011147	 -3.6462549842
3.011570	 -3.6492361845
3.011993	 -3.6522173851
3.012415	 -3.6551985860
3.012837	 -3.6581797872
3.013259	 -3.6611609887
3.013680	 -3.6641421905
3.014100	 -3.6671233926
3.014521	 -3.6701045950
3.014940	 -3.6730857978
3.015360	 -3.6760670008
3.015779	 -3.6790482042
3.016197	 -3.6820294078
3.016616	 -3.6850106117
3.017033	 -3.6879918159
3.017451	 -3.6909730205
3.017868	 -3.6939542253
3.018284	 -3.6969354304
3.018700	 -3.6999166358
3.019116	 -3.7028978415
3.019532	 -3.7058790474
3.019947	 -3.7088602537
3.020361	 -3.7118414602
3.020775	 -3.7148226670
3.021189	 -3.7178038741
3.021603	 -3.7207850815
3.022016	 -3.7237662892
3.022428	 -3.7267474971
3.022841	 -3.7297287053
3.023252	 -3.7327099138
3.023664	 -3.7356911225
3.024075	 -3.7386723315
3.024486	 -3.7416535408
3.024896	 -3.7446347504
3.025306	 -3.7476159602
3.025715	 -3.7505971703
3.026125	 -3.7535783806
3.026533	 -3.7565595912
3.026942	 -3.7595408021
3.027350	 -3.7625220132
3.027757	 -3.7655032246
3.028164	 -3.7684844362
3.028571	 -3.7714656481
3.028978	 -3.7744468603
3.029384	 -3.7774280727
3.029789	 -3.7804092853
3.030195	 -3.7833904982
3.030600	 -3.7863717114
3.031004	 -3.7893529248
3.031408	 -3.7923341384
3.031812	 -3.7953153523
3.032216	 -3.7982965664
3.032619	 -3.8012777808
3.033021	 -3.8042589954
3.033424	 -3.8072402102
3.033826	 -3.8102214253
3.034227	 -3.8132026406
3.034628	 -3.8161838562
3.035029	 -3.8191650720
3.035430	 -3.8221462880
3.035830	 -3.8251275042
3.036230	 -3.8281087207
3.036629	 -3.8310899374
3.037028	 -3.8340711544
3.037426	 -3.8370523715
3.037825	 -3.8400335889
3.038223	 -3.8430148065
3.038620	 -3.8459960244
3.039017	 -3.8489772424
3.039414	 -3.8519584607
3.039811	 -3.8549396792
3.040207	 -3.8579208979
3.040602	 -3.8609021168
3.040998	 -3.8638833360
3.041393	 -3.8668645553
3.041787	 -3.8698457749
3.042182	 -3.8728269947
3.042576	 -3.8758082147
3.042969	 -3.8787894349
3.043362	 -3.8817706553
3.043755	 -3.8847518759
3.044148	 -3.8877330968
3.044540	 -3.8907143178
3.044932	 -3.8936955390
3.045323	 -3.8966767605
3.045714	 -3.8996579821
3.046105	 -3.9026392040
3.046495	 -3.9056204260
3.046885	 -3.9086016483
3.047275	 -3.9115828707
3.047664	 -3.9145640934
3.048053	 -3.9175453162
3.048442	 -3.9205265392
3.048830	 -3.9235077624
3.049218	 -3.9264889859
3.049606	 -3.9294702095
3.049993	 -3.9324514333
3.050380	 -3.9354326573
3.050766	 -3.9384138814
3.051153	 -3.9413951058
3.051538	 -3.9443763304
3.051924	 -3.9473575551
3.052309	 -3.9503387800
3.052694	 -3.9533200051
3.053078	 -3.9563012304
3.053463	 -3.9592824559
3.053846	 -3.9622636815
3.054230	 -3.9652449073
3.054613	 -3.9682261334
3.054996	 -3.9712073595
3.055378	 -3.9741885859
3.055760	 -3.9771698124
3.056142	 -3.9801510391
3.056524	 -3.9831322660
3.056905	 -3.9861134931
3.057286	 -3.9890947203
3.057666	 -3.9920759477
3.058046	 -3.9950571753
3.058426	 -3.9980384030
3.058805	 -4.0010196309
3.059185	 -4.0040008590
3.059563	 -4.0069820873
3.059942	 -4.0099633157
3.060320	 -4.0129445442
3.060698	 -4.0159257730
3.061075	 -4.0189070019
3.061452	 -4.0218882309
3.061829	 -4.0248694602
3.062206	 -4.0278506895
3.062582	 -4.0308319191
3.062958	 -4.0338131488
3.063333	 -4.0367943786
3.063709	 -4.0397756087
3.064083	 -4.0427568388
3.064458	 -4.0457380692
3.064832	 -4.0487192996
3.065206	 -4.0517005303
3.065580	 -4.0546817610
3.065953	 -4.0576629920
3.066326	 -4.0606442231
3.066699	 -4.0636254543
3.067071	 -4.0666066857
3.067443	 -4.0695879172
3.067815	 -4.0725691489
3.068186	 -4.0755503808
3.068557	 -4.0785316127
3.068928	 -4.0815128449
3.069298	 -4.0844940771
3.069668	 -4.0874753095
3.070038	 -4.0904565421
3.070407	 -4.0934377748
3.070776	 -4.0964190076
3.071145	 -4.0994002406
3.071514	 -4.1023814737
3.071882	 -4.1053627070
3.072250	 -4.1083439404
3.072617	 -4.1113251739
3.072985	 -4.1143064076
3.073352	 -4.1172876414
3.073718	 -4.1202688753
3.074085	 -4.1232501094
3.074451	 -4.1262313436
3.074816	 -4.1292125779
3.075182	 -4.1321938124
3.075547	 -4.1351750470
3.075912	 -4.1381562818
3.076276	 -4.1411375166
3.076640	 -4.1441187516
3.077004	 -4.1470999868
3.077368	 -4.1500812220
3.077731	 -4.1530624574
3.078094	 -4.1560436929
3.078457	 -4.1590249285
3.078819	 -4.1620061643
3.079181	 -4.1649874002
3.079543	 -4.1679686362
3.079904	 -4.1709498723
3.080266	 -4.1739311086
3.080626	 -4.1769123450
3.080987	 -4.1798935815
3.081347	 -4.1828748181
3.081707	 -4.1858560548
3.082067	 -4.1888372917
3.082426	 -4.1918185287
3.082785	 -4.1947997657
3.083144	 -4.1977810030
3.083503	 -4.2007622403
3.083861	 -4.2037434777
3.084219	 -4.2067247153
3.084576	 -4.2097059530
3.084934	 -4.2126871908
3.085291	 -4.2156684287
3.085647	 -4.2186496667
3.086004	 -4.2216309048
3.086360	 -4.2246121431
3.086716	 -4.2275933814
3.087071	 -4.2305746199
3.087426	 -4.2335558585
3.087781	 -4.2365370971
3.088136	 -4.2395183359
3.088490	 -4.2424995748
3.088845	 -4.2454808138
3.089198	 -4.2484620530
3.089552	 -4.2514432922
3.089905	 -4.2544245315
3.090258	 -4.2574057709
3.090611	 -4.2603870105
3.090963	 -4.2633682501
3.091315	 -4.2663494899
3.091667	 -4.2693307297
3.092018	 -4.2723119697
3.092370	 -4.2752932097
3.092721	 -4.2782744499
3.093071	 -4.2812556901
3.093422	 -4.2842369305
3.093772	 -4.2872181709
3.094122	 -4.2901994115
3.094471	 -4.2931806521
3.094820	 -4.2961618929
3.095169	 -4.2991431337
3.095518	 -4.3021243747
3.095866	 -4.3051056157
3.096215	 -4.3080868568
3.096562	 -4.3110680981
3.096910	 -4.3140493394