Variables= "X","Y"
zone T= "BLOCK1", I=10, J=10

0.000000	-0.897772
0.301030	-1.170903
0.477121	-1.316846
0.602060	-1.418436
0.698970	-1.496691
0.778151	-1.560165
0.845098	-1.613065
0.903090	-1.657982
0.954243	-1.696838
1.000000	-1.731157
1.041393	-1.762141
1.079181	-1.790706
1.113943	-1.817530
1.146128	-1.843103
1.176091	-1.867777
1.204120	-1.891796
1.230449	-1.915336
1.255273	-1.938519
1.278754	-1.961433
1.301030	-1.984139
1.322219	-2.006684
1.342423	-2.029102
1.361728	-2.051416
1.380211	-2.073648
1.397940	-2.095811
1.414973	-2.117918
1.431364	-2.139977
1.447158	-2.161997
1.462398	-2.183983
1.477121	-2.205941
1.491362	-2.227875
1.505150	-2.249788
1.518514	-2.271684
1.531479	-2.293566
1.544068	-2.315434
1.556303	-2.337292
1.568202	-2.359141
1.579784	-2.380981
1.591065	-2.402815
1.602060	-2.424643
1.612784	-2.446466
1.623249	-2.468285
1.633468	-2.490101
1.643453	-2.511913
1.653213	-2.533722
1.662758	-2.555530
1.672098	-2.577335
1.681241	-2.599138
1.690196	-2.620941
1.698970	-2.642742
1.707570	-2.664542
1.716003	-2.686341
1.724276	-2.708139
1.732394	-2.729936
1.740363	-2.751733
1.748188	-2.773530
1.755875	-2.795326
1.763428	-2.817122
1.770852	-2.838917
1.778151	-2.860713
1.785330	-2.882508
1.792392	-2.904302
1.799341	-2.926097
1.806180	-2.947892
1.812913	-2.969686
1.819544	-2.991480
1.826075	-3.013274
1.832509	-3.035069
1.838849	-3.056863
1.845098	-3.078657
1.851258	-3.100451
1.857332	-3.122244
1.863323	-3.144038
1.869232	-3.165832
1.875061	-3.187626
1.880814	-3.209420
1.886491	-3.231214
1.892095	-3.253007
1.897627	-3.274801
1.903090	-3.296595
1.908485	-3.318389
1.913814	-3.340182
1.919078	-3.361976
1.924279	-3.383770
1.929419	-3.405563
1.934498	-3.427357
1.939519	-3.449151
1.944483	-3.470945
1.949390	-3.492738
1.954243	-3.514532
1.959041	-3.536326
1.963788	-3.558119
1.968483	-3.579913
1.973128	-3.601707
1.977724	-3.623500
1.982271	-3.645294
1.986772	-3.667088
1.991226	-3.688881
1.995635	-3.710675
2.000000	-3.732469
2.004321	-3.754262
2.008600	-3.776056
2.012837	-3.797850
2.017033	-3.819643
2.021189	-3.841437
2.025306	-3.863231
2.029384	-3.885024
2.033424	-3.906818
2.037426	-3.928612
2.041393	-3.950405
2.045323	-3.972199
2.049218	-3.993993
2.053078	-4.015787
2.056905	-4.037580
2.060698	-4.059374
2.064458	-4.081168
2.068186	-4.102961
2.071882	-4.124755
2.075547	-4.146549
2.079181	-4.168342
2.082785	-4.190136
2.086360	-4.211930
2.089905	-4.233723
2.093422	-4.255517
2.096910	-4.277311
2.100371	-4.299104
2.103804	-4.320898
2.107210	-4.342692
2.110590	-4.364485
2.113943	-4.386279
2.117271	-4.408073
2.120574	-4.429866
2.123852	-4.451660
2.127105	-4.473454
2.130334	-4.495247
2.133539	-4.517041
2.136721	-4.538835
2.139879	-4.560628
2.143015	-4.582422
2.146128	-4.604216
2.149219	-4.626009
2.152288	-4.647803
2.155336	-4.669597
2.158362	-4.691390
2.161368	-4.713184
2.164353	-4.734978
2.167317	-4.756771
2.170262	-4.778565
2.173186	-4.800359
2.176091	-4.822152
2.178977	-4.843946
2.181844	-4.865740
2.184691	-4.887533
2.187521	-4.909327
2.190332	-4.931121
2.193125	-4.952915
2.195900	-4.974708
2.198657	-4.996502
2.201397	-5.018296
2.204120	-5.040089
2.206826	-5.061883
2.209515	-5.083677
2.212188	-5.105470
2.214844	-5.127264
2.217484	-5.149058
2.220108	-5.170851
2.222716	-5.192645
2.225309	-5.214439
2.227887	-5.236232
2.230449	-5.258026
2.232996	-5.279820
2.235528	-5.301613
2.238046	-5.323407
2.240549	-5.345201
2.243038	-5.366994
2.245513	-5.388788
2.247973	-5.410582
2.250420	-5.432375
2.252853	-5.454169
2.255273	-5.475963
2.257679	-5.497756
2.260071	-5.519550
2.262451	-5.541344
2.264818	-5.563137
2.267172	-5.584931
2.269513	-5.606725
2.271842	-5.628518
2.274158	-5.650312
2.276462	-5.672106
2.278754	-5.693899
2.281033	-5.715693
2.283301	-5.737487
2.285557	-5.759280
2.287802	-5.781074
2.290035	-5.802868
2.292256	-5.824661
2.294466	-5.846455
2.296665	-5.868249
2.298853	-5.890043
2.301030	-5.911836
2.303196	-5.933630
2.305351	-5.955424
2.307496	-5.977217
2.309630	-5.999011
2.311754	-6.020805
2.313867	-6.042598
2.315970	-6.064392
2.318063	-6.086186
2.320146	-6.107979
2.322219	-6.129773
2.324282	-6.151567
2.326336	-6.173360
2.328380	-6.195154
2.330414	-6.216948
2.332438	-6.238741
2.334454	-6.260535
2.336460	-6.282329
2.338456	-6.304122
2.340444	-6.325916
2.342423	-6.347710
2.344392	-6.369503
2.346353	-6.391297
2.348305	-6.413091
2.350248	-6.434884
2.352183	-6.456678
2.354108	-6.478472
2.356026	-6.500265
2.357935	-6.522059
2.359835	-6.543853
2.361728	-6.565646
2.363612	-6.587440
2.365488	-6.609234
2.367356	-6.631027
2.369216	-6.652821
2.371068	-6.674615
2.372912	-6.696408
2.374748	-6.718202
2.376577	-6.739996
2.378398	-6.761789
2.380211	-6.783583
2.382017	-6.805377
2.383815	-6.827171
2.385606	-6.848964
2.387390	-6.870758
2.389166	-6.892552
2.390935	-6.914345
2.392697	-6.936139
2.394452	-6.957933
2.396199	-6.979726
2.397940	-7.001520
2.399674	-7.023314
2.401401	-7.045107
2.403121	-7.066901
2.404834	-7.088695
2.406540	-7.110488
2.408240	-7.132282
2.409933	-7.154076
2.411620	-7.175869
2.413300	-7.197663
2.414973	-7.219457
2.416641	-7.241250
2.418301	-7.263044
2.419956	-7.284838
2.421604	-7.306631
2.423246	-7.328425
2.424882	-7.350219
2.426511	-7.372012
2.428135	-7.393806
2.429752	-7.415600
2.431364	-7.437393
2.432969	-7.459187
2.434569	-7.480981
2.436163	-7.502774
2.437751	-7.524568
2.439333	-7.546362
2.440909	-7.568155
2.442480	-7.589949
2.444045	-7.611743
2.445604	-7.633536
2.447158	-7.655330
2.448706	-7.677124
2.450249	-7.698917
2.451786	-7.720711
2.453318	-7.742505
2.454845	-7.764299
2.456366	-7.786092
2.457882	-7.807886
2.459392	-7.829680
2.460898	-7.851473
2.462398	-7.873267
2.463893	-7.895061
2.465383	-7.916854
2.466868	-7.938648
2.468347	-7.960442
2.469822	-7.982235
2.471292	-8.004029
