Variables= "X","Y","PHI"
zone T= "BLOCK1", I=11, J=11, F=Point

0.000000 	 0.000000 	 1.000000 
0.000000 	 0.100000 	 1.000000 
0.000000 	 0.200000 	 1.000000 
0.000000 	 0.300000 	 1.000000 
0.000000 	 0.400000 	 1.000000 
0.000000 	 0.500000 	 1.000000 
0.000000 	 0.600000 	 1.000000 
0.000000 	 0.700000 	 1.000000 
0.000000 	 0.800000 	 1.000000 
0.000000 	 0.900000 	 1.000000 
0.000000 	 1.000000 	 0.000000 
0.100000 	 0.000000 	 1.000000 
0.100000 	 0.100000 	 0.988925 
0.100000 	 0.200000 	 0.976693 
0.100000 	 0.300000 	 0.961973 
0.100000 	 0.400000 	 0.943001 
0.100000 	 0.500000 	 0.917113 
0.100000 	 0.600000 	 0.879656 
0.100000 	 0.700000 	 0.821163 
0.100000 	 0.800000 	 0.719090 
0.100000 	 0.900000 	 0.511075 
0.100000 	 1.000000 	 0.000000 
0.200000 	 0.000000 	 1.000000 
0.200000 	 0.100000 	 0.979006 
0.200000 	 0.200000 	 0.955876 
0.200000 	 0.300000 	 0.928196 
0.200000 	 0.400000 	 0.892918 
0.200000 	 0.500000 	 0.845796 
0.200000 	 0.600000 	 0.780348 
0.200000 	 0.700000 	 0.685905 
0.200000 	 0.800000 	 0.544124 
0.200000 	 0.900000 	 0.325209 
0.200000 	 1.000000 	 0.000000 
0.300000 	 0.000000 	 1.000000 
0.300000 	 0.100000 	 0.971225 
0.300000 	 0.200000 	 0.939609 
0.300000 	 0.300000 	 0.902016 
0.300000 	 0.400000 	 0.854681 
0.300000 	 0.500000 	 0.792804 
0.300000 	 0.600000 	 0.710037 
0.300000 	 0.700000 	 0.597984 
0.300000 	 0.800000 	 0.446290 
0.300000 	 0.900000 	 0.245639 
0.300000 	 1.000000 	 0.000000 
0.400000 	 0.000000 	 1.000000 
0.400000 	 0.100000 	 0.966284 
0.400000 	 0.200000 	 0.929319 
0.400000 	 0.300000 	 0.885577 
0.400000 	 0.400000 	 0.830987 
0.400000 	 0.500000 	 0.760701 
0.400000 	 0.600000 	 0.669012 
0.400000 	 0.700000 	 0.549703 
0.400000 	 0.800000 	 0.397414 
0.400000 	 0.900000 	 0.211058 
0.400000 	 1.000000 	 0.000000 
0.500000 	 0.000000 	 1.000000 
0.500000 	 0.100000 	 0.964593 
0.500000 	 0.200000 	 0.925804 
0.500000 	 0.300000 	 0.879987 
0.500000 	 0.400000 	 0.822990 
0.500000 	 0.500000 	 0.750000 
0.500000 	 0.600000 	 0.655607 
0.500000 	 0.700000 	 0.534404 
0.500000 	 0.800000 	 0.382603 
0.500000 	 0.900000 	 0.201180 
0.500000 	 1.000000 	 0.000000 
0.600000 	 0.000000 	 1.000000 
0.600000 	 0.100000 	 0.966284 
0.600000 	 0.200000 	 0.929319 
0.600000 	 0.300000 	 0.885577 
0.600000 	 0.400000 	 0.830987 
0.600000 	 0.500000 	 0.760701 
0.600000 	 0.600000 	 0.669012 
0.600000 	 0.700000 	 0.549703 
0.600000 	 0.800000 	 0.397414 
0.600000 	 0.900000 	 0.211058 
0.600000 	 1.000000 	 0.000000 
0.700000 	 0.000000 	 1.000000 
0.700000 	 0.100000 	 0.971225 
0.700000 	 0.200000 	 0.939609 
0.700000 	 0.300000 	 0.902016 
0.700000 	 0.400000 	 0.854681 
0.700000 	 0.500000 	 0.792804 
0.700000 	 0.600000 	 0.710037 
0.700000 	 0.700000 	 0.597984 
0.700000 	 0.800000 	 0.446290 
0.700000 	 0.900000 	 0.245639 
0.700000 	 1.000000 	 0.000000 
0.800000 	 0.000000 	 1.000000 
0.800000 	 0.100000 	 0.979006 
0.800000 	 0.200000 	 0.955876 
0.800000 	 0.300000 	 0.928196 
0.800000 	 0.400000 	 0.892918 
0.800000 	 0.500000 	 0.845796 
0.800000 	 0.600000 	 0.780348 
0.800000 	 0.700000 	 0.685905 
0.800000 	 0.800000 	 0.544124 
0.800000 	 0.900000 	 0.325209 
0.800000 	 1.000000 	 0.000000 
0.900000 	 0.000000 	 1.000000 
0.900000 	 0.100000 	 0.988925 
0.900000 	 0.200000 	 0.976693 
0.900000 	 0.300000 	 0.961973 
0.900000 	 0.400000 	 0.943001 
0.900000 	 0.500000 	 0.917113 
0.900000 	 0.600000 	 0.879656 
0.900000 	 0.700000 	 0.821163 
0.900000 	 0.800000 	 0.719090 
0.900000 	 0.900000 	 0.511075 
0.900000 	 1.000000 	 0.000000 
1.000000 	 0.000000 	 1.000000 
1.000000 	 0.100000 	 1.000000 
1.000000 	 0.200000 	 1.000000 
1.000000 	 0.300000 	 1.000000 
1.000000 	 0.400000 	 1.000000 
1.000000 	 0.500000 	 1.000000 
1.000000 	 0.600000 	 1.000000 
1.000000 	 0.700000 	 1.000000 
1.000000 	 0.800000 	 1.000000 
1.000000 	 0.900000 	 1.000000 
1.000000 	 1.000000 	 0.000000 
