Variables= "X","Y"
zone T= "BLOCK1", I=10, J=10

0.000000	-0.765689
0.301030	-1.052761
0.477121	-1.219235
0.602060	-1.331216
0.698970	-1.414672
0.778151	-1.481688
0.845098	-1.538948
0.903090	-1.590412
0.954243	-1.638435
1.000000	-1.684404
1.041393	-1.729133
1.079181	-1.773105
1.113943	-1.816611
1.146128	-1.859836
1.176091	-1.902899
1.204120	-1.945877
1.230449	-1.988825
1.255273	-2.031777
1.278754	-2.074755
1.301030	-2.117773
1.322219	-2.160839
1.342423	-2.203954
1.361728	-2.247119
1.380211	-2.290331
1.397940	-2.333588
1.414973	-2.376885
1.431364	-2.420220
1.447158	-2.463587
1.462398	-2.506983
1.477121	-2.550404
1.491362	-2.593849
1.505150	-2.637313
1.518514	-2.680793
1.531479	-2.724289
1.544068	-2.767798
1.556303	-2.811317
1.568202	-2.854846
1.579784	-2.898384
1.591065	-2.941928
1.602060	-2.985479
1.612784	-3.029035
1.623249	-3.072595
1.633468	-3.116159
1.643453	-3.159727
1.653213	-3.203297
1.662758	-3.246870
1.672098	-3.290444
1.681241	-3.334021
1.690196	-3.377599
1.698970	-3.421179
1.707570	-3.464759
1.716003	-3.508341
1.724276	-3.551923
1.732394	-3.595506
1.740363	-3.639090
1.748188	-3.682674
1.755875	-3.726259
1.763428	-3.769844
1.770852	-3.813430
1.778151	-3.857015
1.785330	-3.900601
1.792392	-3.944187
1.799341	-3.987774
1.806180	-4.031360
1.812913	-4.074947
1.819544	-4.118533
1.826075	-4.162120
1.832509	-4.205707
1.838849	-4.249294
1.845098	-4.292881
1.851258	-4.336468
1.857332	-4.380055
1.863323	-4.423642
1.869232	-4.467229
1.875061	-4.510817
1.880814	-4.554404
1.886491	-4.597991
1.892095	-4.641578
1.897627	-4.685166
1.903090	-4.728753
1.908485	-4.772340
1.913814	-4.815927
1.919078	-4.859515
1.924279	-4.903102
1.929419	-4.946689
1.934498	-4.990277
1.939519	-5.033864
1.944483	-5.077451
1.949390	-5.121039
1.954243	-5.164626
1.959041	-5.208213
1.963788	-5.251801
1.968483	-5.295388
1.973128	-5.338975
1.977724	-5.382563
1.982271	-5.426150
1.986772	-5.469737
1.991226	-5.513325
1.995635	-5.556912
2.000000	-5.600499
2.004321	-5.644087
2.008600	-5.687674
2.012837	-5.731261
2.017033	-5.774849
2.021189	-5.818436
2.025306	-5.862023
2.029384	-5.905611
2.033424	-5.949198
2.037426	-5.992785
2.041393	-6.036373
2.045323	-6.079960
2.049218	-6.123548
2.053078	-6.167135
2.056905	-6.210722
2.060698	-6.254310
2.064458	-6.297897
2.068186	-6.341484
2.071882	-6.385072
2.075547	-6.428659
2.079181	-6.472246
2.082785	-6.515834
2.086360	-6.559421
2.089905	-6.603008
2.093422	-6.646596
2.096910	-6.690183
2.100371	-6.733770
2.103804	-6.777358
2.107210	-6.820945
2.110590	-6.864532
2.113943	-6.908120
2.117271	-6.951707
2.120574	-6.995294
2.123852	-7.038882
2.127105	-7.082469
2.130334	-7.126057
2.133539	-7.169644
2.136721	-7.213231
2.139879	-7.256819
2.143015	-7.300406
2.146128	-7.343993
2.149219	-7.387581
2.152288	-7.431168
2.155336	-7.474755
2.158362	-7.518343
2.161368	-7.561930
2.164353	-7.605517
2.167317	-7.649105
2.170262	-7.692692
2.173186	-7.736279
2.176091	-7.779867
2.178977	-7.823454
2.181844	-7.867041
2.184691	-7.910629
2.187521	-7.954216
2.190332	-7.997804
2.193125	-8.041391
