Variables= "X","Y","PHI"
zone T= "BLOCK1", I=11, J=11, F=Point

0.000000 	 0.000000 	 1.000000 
0.000000 	 0.100000 	 1.000000 
0.000000 	 0.200000 	 1.000000 
0.000000 	 0.300000 	 1.000000 
0.000000 	 0.400000 	 1.000000 
0.000000 	 0.500000 	 1.000000 
0.000000 	 0.600000 	 1.000000 
0.000000 	 0.700000 	 1.000000 
0.000000 	 0.800000 	 1.000000 
0.000000 	 0.900000 	 1.000000 
0.000000 	 1.000000 	 0.000000 
0.100000 	 0.000000 	 1.000000 
0.100000 	 0.100000 	 0.934680 
0.100000 	 0.200000 	 0.891947 
0.100000 	 0.300000 	 0.861451 
0.100000 	 0.400000 	 0.837645 
0.100000 	 0.500000 	 0.815596 
0.100000 	 0.600000 	 0.788882 
0.100000 	 0.700000 	 0.745461 
0.100000 	 0.800000 	 0.655325 
0.100000 	 0.900000 	 0.347388 
0.100000 	 1.000000 	 0.000000 
0.200000 	 0.000000 	 1.000000 
0.200000 	 0.100000 	 0.828592 
0.200000 	 0.200000 	 0.740624 
0.200000 	 0.300000 	 0.686449 
0.200000 	 0.400000 	 0.647354 
0.200000 	 0.500000 	 0.613079 
0.200000 	 0.600000 	 0.574472 
0.200000 	 0.700000 	 0.518929 
0.200000 	 0.800000 	 0.424104 
0.200000 	 0.900000 	 0.228065 
0.200000 	 1.000000 	 0.000000 
0.300000 	 0.000000 	 1.000000 
0.300000 	 0.100000 	 0.773714 
0.300000 	 0.200000 	 0.652526 
0.300000 	 0.300000 	 0.578339 
0.300000 	 0.400000 	 0.526132 
0.300000 	 0.500000 	 0.482243 
0.300000 	 0.600000 	 0.436248 
0.300000 	 0.700000 	 0.377108 
0.300000 	 0.800000 	 0.290803 
0.300000 	 0.900000 	 0.155584 
0.300000 	 1.000000 	 0.000000 
0.400000 	 0.000000 	 1.000000 
0.400000 	 0.100000 	 0.747332 
0.400000 	 0.200000 	 0.606386 
0.400000 	 0.300000 	 0.518793 
0.400000 	 0.400000 	 0.457497 
0.400000 	 0.500000 	 0.407309 
0.400000 	 0.600000 	 0.357421 
0.400000 	 0.700000 	 0.298293 
0.400000 	 0.800000 	 0.220782 
0.400000 	 0.900000 	 0.116566 
0.400000 	 1.000000 	 0.000000 
0.500000 	 0.000000 	 1.000000 
0.500000 	 0.100000 	 0.737055 
0.500000 	 0.200000 	 0.587782 
0.500000 	 0.300000 	 0.494240 
0.500000 	 0.400000 	 0.428894 
0.500000 	 0.500000 	 0.376058 
0.500000 	 0.600000 	 0.324835 
0.500000 	 0.700000 	 0.266346 
0.500000 	 0.800000 	 0.193270 
0.500000 	 0.900000 	 0.101171 
0.500000 	 1.000000 	 0.000000 
0.600000 	 0.000000 	 1.000000 
0.600000 	 0.100000 	 0.739431 
0.600000 	 0.200000 	 0.592166 
0.600000 	 0.300000 	 0.500311 
0.600000 	 0.400000 	 0.436391 
0.600000 	 0.500000 	 0.384764 
0.600000 	 0.600000 	 0.334454 
0.600000 	 0.700000 	 0.276229 
0.600000 	 0.800000 	 0.202004 
0.600000 	 0.900000 	 0.106744 
0.600000 	 1.000000 	 0.000000 
0.700000 	 0.000000 	 1.000000 
0.700000 	 0.100000 	 0.755452 
0.700000 	 0.200000 	 0.621325 
0.700000 	 0.300000 	 0.539403 
0.700000 	 0.400000 	 0.482877 
0.700000 	 0.500000 	 0.436833 
0.700000 	 0.600000 	 0.390433 
0.700000 	 0.700000 	 0.333197 
0.700000 	 0.800000 	 0.253286 
0.700000 	 0.900000 	 0.139332 
0.700000 	 1.000000 	 0.000000 
0.800000 	 0.000000 	 1.000000 
0.800000 	 0.100000 	 0.790834 
0.800000 	 0.200000 	 0.683780 
0.800000 	 0.300000 	 0.621049 
0.800000 	 0.400000 	 0.578329 
0.800000 	 0.500000 	 0.542957 
0.800000 	 0.600000 	 0.505279 
0.800000 	 0.700000 	 0.453699 
0.800000 	 0.800000 	 0.369498 
0.800000 	 0.900000 	 0.222047 
0.800000 	 1.000000 	 0.000000 
0.900000 	 0.000000 	 1.000000 
0.900000 	 0.100000 	 0.860052 
0.900000 	 0.200000 	 0.798090 
0.900000 	 0.300000 	 0.764032 
0.900000 	 0.400000 	 0.741081 
0.900000 	 0.500000 	 0.721620 
0.900000 	 0.600000 	 0.699559 
0.900000 	 0.700000 	 0.665518 
0.900000 	 0.800000 	 0.597181 
0.900000 	 0.900000 	 0.426943 
0.900000 	 1.000000 	 0.000000 
1.000000 	 0.000000 	 1.000000 
1.000000 	 0.100000 	 1.000000 
1.000000 	 0.200000 	 1.000000 
1.000000 	 0.300000 	 1.000000 
1.000000 	 0.400000 	 1.000000 
1.000000 	 0.500000 	 1.000000 
1.000000 	 0.600000 	 1.000000 
1.000000 	 0.700000 	 1.000000 
1.000000 	 0.800000 	 1.000000 
1.000000 	 0.900000 	 1.000000 
1.000000 	 1.000000 	 0.000000 
